                         Program Version 4.2.0 -  RELEASE  -
|  1> # 12h2o.su.etal.mol0,2,3,5,6,8,9,10,11
|  2> ! MP2 def2-TZVP EnGrad TightSCF
|  3>
|  4> %pal
|  5>     nprocs 6
|  6> end
|  7>
|  8> %maxcore 8000
|  9>
| 10> %scf
| 11>     ConvForced true
| 12> end
| 13>
| 14> *xyz 0 1
| 15> O   1.794470000   0.923410000   2.768350000
| 16> H   2.338250000   1.359750000   3.430940000
| 17> H   0.879480000   1.303000000   2.865760000
| 18> O   0.923410000  -1.794470000  -2.768350000
| 19> H   1.359750000  -2.338250000  -3.430940000
| 20> H   1.303000000  -0.879480000  -2.865760000
| 21> O  -1.752130000  -0.741530000  -2.896280000
| 22> H  -2.036450000  -0.920500000  -1.984040000
| 23> H  -0.921210000  -1.242140000  -2.984230000
| 24> O   0.885520000  -1.737840000   0.052730000
| 25> H   1.284090000  -0.839590000   0.017130000
| 26> H   1.032320000  -2.090180000  -0.841890000
| 27> O   1.737840000   0.885520000  -0.052730000
| 28> H   2.090180000   1.032320000   0.841890000
| 29> H   0.839590000   1.284090000  -0.017130000
| 30> O   1.752130000   0.741530000  -2.896280000
| 31> H   2.036450000   0.920500000  -1.984040000
| 32> H   0.921210000   1.242140000  -2.984230000
| 33> O   0.741530000  -1.752130000   2.896280000
| 34> H   0.920500000  -2.036450000   1.984040000
| 35> H   1.242140000  -0.921210000   2.984230000
| 36> O  -0.923410000   1.794470000  -2.768350000
| 37> H  -1.359750000   2.338250000  -3.430940000
| 38> H  -1.303000000   0.879480000  -2.865760000
| 39> O  -0.741530000   1.752130000   2.896280000
| 40> H  -0.920500000   2.036450000   1.984040000
| 41> H  -1.242140000   0.921210000   2.984230000
| 42> *
| 43>
| 44>                          ****END OF INPUT****

CARTESIAN COORDINATES (ANGSTROEM)
---------------------------------
  O      1.794470    0.923410    2.768350
  H      2.338250    1.359750    3.430940
  H      0.879480    1.303000    2.865760
  O      0.923410   -1.794470   -2.768350
  H      1.359750   -2.338250   -3.430940
  H      1.303000   -0.879480   -2.865760
  O     -1.752130   -0.741530   -2.896280
  H     -2.036450   -0.920500   -1.984040
  H     -0.921210   -1.242140   -2.984230
  O      0.885520   -1.737840    0.052730
  H      1.284090   -0.839590    0.017130
  H      1.032320   -2.090180   -0.841890
  O      1.737840    0.885520   -0.052730
  H      2.090180    1.032320    0.841890
  H      0.839590    1.284090   -0.017130
  O      1.752130    0.741530   -2.896280
  H      2.036450    0.920500   -1.984040
  H      0.921210    1.242140   -2.984230
  O      0.741530   -1.752130    2.896280
  H      0.920500   -2.036450    1.984040
  H      1.242140   -0.921210    2.984230
  O     -0.923410    1.794470   -2.768350
  H     -1.359750    2.338250   -3.430940
  H     -1.303000    0.879480   -2.865760
  O     -0.741530    1.752130    2.896280
  H     -0.920500    2.036450    1.984040
  H     -1.242140    0.921210    2.984230

 Total Charge           Charge          ....    0
 Multiplicity           Mult            ....    1
 Number of Electrons    NEL             ....   90
 Basis Dimension        Dim             ....  387

ORBITAL ENERGIES
----------------

  NO   OCC          E(Eh)            E(eV)
   0   2.0000     -20.618016      -561.0447
   1   2.0000     -20.594426      -560.4028
   2   2.0000     -20.578949      -559.9817
   3   2.0000     -20.575243      -559.8808
   4   2.0000     -20.564324      -559.5837
   5   2.0000     -20.558327      -559.4205
   6   2.0000     -20.556221      -559.3632
   7   2.0000     -20.521941      -558.4304
   8   2.0000     -20.499705      -557.8253
   9   2.0000      -1.404465       -38.2174
  10   2.0000      -1.383148       -37.6374
  11   2.0000      -1.369741       -37.2725
  12   2.0000      -1.362427       -37.0735
  13   2.0000      -1.356410       -36.9098
  14   2.0000      -1.344402       -36.5830
  15   2.0000      -1.333940       -36.2983
  16   2.0000      -1.309013       -35.6201
  17   2.0000      -1.284264       -34.9466
  18   2.0000      -0.760075       -20.6827
  19   2.0000      -0.748535       -20.3687
  20   2.0000      -0.742918       -20.2158
  21   2.0000      -0.733006       -19.9461
  22   2.0000      -0.725913       -19.7531
  23   2.0000      -0.721451       -19.6317
  24   2.0000      -0.710675       -19.3385
  25   2.0000      -0.690741       -18.7960
  26   2.0000      -0.664754       -18.0889
  27   2.0000      -0.649919       -17.6852
  28   2.0000      -0.635071       -17.2812
  29   2.0000      -0.620131       -16.8746
  30   2.0000      -0.603043       -16.4096
  31   2.0000      -0.600025       -16.3275
  32   2.0000      -0.586298       -15.9540
  33   2.0000      -0.578102       -15.7310
  34   2.0000      -0.559121       -15.2145
  35   2.0000      -0.553002       -15.0479
  36   2.0000      -0.535857       -14.5814
  37   2.0000      -0.523989       -14.2585
  38   2.0000      -0.516518       -14.0552
  39   2.0000      -0.513695       -13.9784
  40   2.0000      -0.508449       -13.8356
  41   2.0000      -0.504891       -13.7388
  42   2.0000      -0.501710       -13.6522
  43   2.0000      -0.473320       -12.8797
  44   2.0000      -0.449691       -12.2367
  45   0.0000       0.076798         2.0898
  46   0.0000       0.122720         3.3394
  47   0.0000       0.139564         3.7977
  48   0.0000       0.149048         4.0558
  49   0.0000       0.160732         4.3737

MULLIKEN ATOMIC CHARGES
-----------------------
   0 O :   -0.750326
   1 H :    0.354758
   2 H :    0.382185
   3 O :   -0.757835
   4 H :    0.349877
   5 H :    0.384625
   6 O :   -0.709178
   7 H :    0.355653
   8 H :    0.381454
   9 O :   -0.748082
  10 H :    0.344689
  11 H :    0.366400
  12 O :   -0.722082
  13 H :    0.392459
  14 H :    0.342951
  15 O :   -0.724810
  16 H :    0.385804
  17 H :    0.369365
  18 O :   -0.736496
  19 H :    0.373197
  20 H :    0.341202
  21 O :   -0.751290
  22 H :    0.344990
  23 H :    0.379507
  24 O :   -0.683472
  25 H :    0.353797
  26 H :    0.380656
Sum of atomic charges:   -0.0000000

LOEWDIN ATOMIC CHARGES
----------------------
   0 O :   -0.311793
   1 H :    0.161488
   2 H :    0.145913
   3 O :   -0.315966
   4 H :    0.158773
   5 H :    0.146238
   6 O :   -0.282780
   7 H :    0.171656
   8 H :    0.154925
   9 O :   -0.350045
  10 H :    0.137141
  11 H :    0.146315
  12 O :   -0.282766
  13 H :    0.157711
  14 H :    0.170200
  15 O :   -0.287040
  16 H :    0.155250
  17 H :    0.149904
  18 O :   -0.360491
  19 H :    0.151114
  20 H :    0.137274
  21 O :   -0.345960
  22 H :    0.157350
  23 H :    0.144713
  24 O :   -0.265621
  25 H :    0.171286
  26 H :    0.185211

  Mayer bond orders larger than 0.100000
B(  0-O ,  1-H ) :   0.8383 B(  0-O ,  2-H ) :   0.7502 B(  3-O ,  4-H ) :   0.8407
B(  3-O ,  5-H ) :   0.7266 B(  5-H , 15-O ) :   0.1229 B(  6-O ,  7-H ) :   0.8374
B(  6-O ,  8-H ) :   0.7850 B(  6-O , 23-H ) :   0.1124 B(  9-O , 10-H ) :   0.7946
B(  9-O , 11-H ) :   0.8139 B( 12-O , 13-H ) :   0.7833 B( 12-O , 14-H ) :   0.8356
B( 15-O , 16-H ) :   0.8063 B( 15-O , 17-H ) :   0.7921 B( 18-O , 19-H ) :   0.8137
B( 18-O , 20-H ) :   0.8336 B( 21-O , 22-H ) :   0.8464 B( 21-O , 23-H ) :   0.7467
B( 24-O , 25-H ) :   0.8395 B( 24-O , 26-H ) :   0.8175

MP2 TOTAL ENERGY:     -686.921796434 Eh
FINAL SINGLE POINT ENERGY      -686.921796433794

DIPOLE MOMENT
-------------
                                X             Y             Z
Electronic contribution:     -0.10612       0.15461       0.15026
Nuclear contribution   :     -0.30943       1.58749      -0.63259
                        -----------------------------------------
Total Dipole Moment    :     -0.41555       1.74210      -0.48234
                        -----------------------------------------
Magnitude (a.u.)       :      1.85479
Magnitude (Debye)      :      4.71449

Rotational constants in cm-1:     0.029840     0.013550     0.012336
Rotational constants in MHz :   894.581969   406.230389   369.831479

                             ****ORCA TERMINATED NORMALLY****
TOTAL RUN TIME: 0 days 0 hours 4 minutes 9 seconds 679 msec
