                         Program Version 3.0.3 - RELEASE   -
|  1> ! B3LYP Def2-TZVP def2-TZVP/J RIJCOSX TightSCF Grid4 D3BJ
|  2>
|  3> %pal nprocs 12 end
|  4>
|  5> %scf
|  6>         maxiter 400
|  7> end
|  8>
|  9> * xyz  0  1
| 10> O  -0.133349	0.831269	-1.892466
| 11> H  0.265026	-0.019382	-1.565621
| 12> H  -0.944759	0.547767	-2.337163
| 13> O  -0.717714	1.453271	0.663083
| 14> H  -0.580494	1.221984	-0.293318
| 15> H  -0.102583	2.185629	0.804098
| 16> O  0.740226	-1.384505	-0.674928
| 17> H  1.687322	-1.576105	-0.677432
| 18> H  0.516139	-1.282790	0.288661
| 19> O  0.126707	-0.797403	1.865767
| 20> H  -0.227525	0.079156	1.554568
| 21> H  -0.645552	-1.250484	2.231934
| 22> **                         ****END OF INPUT****

CARTESIAN COORDINATES (ANGSTROEM)
---------------------------------
  O     -0.133349    0.831269   -1.892466
  H      0.265026   -0.019382   -1.565621
  H     -0.944759    0.547767   -2.337163
  O     -0.717714    1.453271    0.663083
  H     -0.580494    1.221984   -0.293318
  H     -0.102583    2.185629    0.804098
  O      0.740226   -1.384505   -0.674928
  H      1.687322   -1.576105   -0.677432
  H      0.516139   -1.282790    0.288661
  O      0.126707   -0.797403    1.865767
  H     -0.227525    0.079156    1.554568
  H     -0.645552   -1.250484    2.231934

 Total Charge           Charge          ....    0
 Multiplicity           Mult            ....    1
 Number of Electrons    NEL             ....   40
 Basis Dimension        Dim             ....  172

ORBITAL ENERGIES
----------------

  NO   OCC          E(Eh)            E(eV)
   0   2.0000     -19.125965      -520.4440
   1   2.0000     -19.125376      -520.4279
   2   2.0000     -19.124679      -520.4090
   3   2.0000     -19.124386      -520.4010
   4   2.0000      -1.025397       -27.9025
   5   2.0000      -1.009078       -27.4584
   6   2.0000      -1.007356       -27.4116
   7   2.0000      -0.991978       -26.9931
   8   2.0000      -0.540317       -14.7028
   9   2.0000      -0.532483       -14.4896
  10   2.0000      -0.521790       -14.1986
  11   2.0000      -0.521152       -14.1813
  12   2.0000      -0.436135       -11.8678
  13   2.0000      -0.405040       -11.0217
  14   2.0000      -0.395869       -10.7722
  15   2.0000      -0.367942       -10.0122
  16   2.0000      -0.322309        -8.7705
  17   2.0000      -0.319677        -8.6988
  18   2.0000      -0.316023        -8.5994
  19   2.0000      -0.314577        -8.5601
  20   0.0000       0.008690         0.2365
  21   0.0000       0.045604         1.2409
  22   0.0000       0.049110         1.3364
  23   0.0000       0.065238         1.7752
  24   0.0000       0.177463         4.8290

MULLIKEN ATOMIC CHARGES
-----------------------
   0 O :   -0.671977
   1 H :    0.363878
   2 H :    0.325235
   3 O :   -0.682690
   4 H :    0.342220
   5 H :    0.327409
   6 O :   -0.691135
   7 H :    0.325777
   8 H :    0.352381
   9 O :   -0.677194
  10 H :    0.361602
  11 H :    0.324494
Sum of atomic charges:   -0.0000000

LOEWDIN ATOMIC CHARGES
----------------------
   0 O :   -0.295140
   1 H :    0.140358
   2 H :    0.157105
   3 O :   -0.296910
   4 H :    0.137507
   5 H :    0.158003
   6 O :   -0.299647
   7 H :    0.157246
   8 H :    0.139786
   9 O :   -0.297360
  10 H :    0.141986
  11 H :    0.157068

  Mayer bond orders larger than 0.1
B(  0-O ,  1-H ) :   0.7960 B(  0-O ,  2-H ) :   0.9001 B(  0-O ,  4-H ) :   0.1689
B(  1-H ,  6-O ) :   0.1253 B(  3-O ,  4-H ) :   0.7825 B(  3-O ,  5-H ) :   0.8993
B(  3-O , 10-H ) :   0.1292 B(  6-O ,  7-H ) :   0.8990 B(  6-O ,  8-H ) :   0.7834
B(  8-H ,  9-O ) :   0.1509 B(  9-O , 10-H ) :   0.7932 B(  9-O , 11-H ) :   0.8990

Dispersion correction           -0.008102317
FINAL SINGLE POINT ENERGY      -305.757548571578

DIPOLE MOMENT
-------------
                                X             Y             Z
Electronic contribution:      0.02030       0.04942      -0.01199
Nuclear contribution   :     -0.05341      -0.24928       0.06893
                        -----------------------------------------
Total Dipole Moment    :     -0.03311      -0.19986       0.05694
                        -----------------------------------------
Magnitude (a.u.)       :      0.21043
Magnitude (Debye)      :      0.53488

                             ****ORCA TERMINATED NORMALLY****
TOTAL RUN TIME: 0 days 0 hours 0 minutes 51 seconds 84 msec
