                         Program Version 3.0.3 - RELEASE   -
|  1> ! wB97X-D3 MA-Def2-TZVP def2-TZVP/J RIJCOSX TightSCF Grid4
|  2>
|  3> %pal nprocs 1 end
|  4>
|  5> %scf
|  6>         maxiter 400
|  7> end
|  8>
|  9> %cosmo
| 10>         SMD true
| 11>         solvent "WATER"
| 12> end
| 13>
| 14> * xyz  0  1
| 15> O  -0.141248	0.697631	-1.730432
| 16> H  0.242814	-0.189673	-1.416835
| 17> H  -1.005119	0.443947	-2.112489
| 18> O  -0.762131	1.584050	0.692328
| 19> H  -0.532969	1.308254	-0.258852
| 20> H  -0.047081	2.212817	0.917375
| 21> O  0.792236	-1.564224	-0.701763
| 22> H  1.763203	-1.445515	-0.726941
| 23> H  0.554182	-1.307118	0.251915
| 24> O  0.096569	-0.710534	1.716314
| 25> H  -0.260506	0.189212	1.406428
| 26> H  -0.716508	-1.210441	1.930137
| 27> **                         ****END OF INPUT****

CARTESIAN COORDINATES (ANGSTROEM)
---------------------------------
  O     -0.141248    0.697631   -1.730432
  H      0.242814   -0.189673   -1.416835
  H     -1.005119    0.443947   -2.112489
  O     -0.762131    1.584050    0.692328
  H     -0.532969    1.308254   -0.258852
  H     -0.047081    2.212817    0.917375
  O      0.792236   -1.564224   -0.701763
  H      1.763203   -1.445515   -0.726941
  H      0.554182   -1.307118    0.251915
  O      0.096569   -0.710534    1.716314
  H     -0.260506    0.189212    1.406428
  H     -0.716508   -1.210441    1.930137

 Total Charge           Charge          ....    0
 Multiplicity           Mult            ....    1
 Number of Electrons    NEL             ....   40
 Basis Dimension        Dim             ....  188

ORBITAL ENERGIES
----------------

  NO   OCC          E(Eh)            E(eV)
   0   2.0000     -19.237086      -523.4677
   1   2.0000     -19.236872      -523.4619
   2   2.0000     -19.236766      -523.4590
   3   2.0000     -19.236727      -523.4580
   4   2.0000      -1.140729       -31.0408
   5   2.0000      -1.120488       -30.4900
   6   2.0000      -1.120228       -30.4829
   7   2.0000      -1.100487       -29.9458
   8   2.0000      -0.632208       -17.2033
   9   2.0000      -0.623239       -16.9592
  10   2.0000      -0.623189       -16.9578
  11   2.0000      -0.622279       -16.9331
  12   2.0000      -0.542903       -14.7731
  13   2.0000      -0.508976       -13.8500
  14   2.0000      -0.507453       -13.8085
  15   2.0000      -0.484056       -13.1718
  16   2.0000      -0.422637       -11.5005
  17   2.0000      -0.422180       -11.4881
  18   2.0000      -0.418842       -11.3973
  19   2.0000      -0.416434       -11.3317
  20   0.0000       0.072586         1.9752
  21   0.0000       0.113195         3.0802
  22   0.0000       0.113489         3.0882
  23   0.0000       0.126436         3.4405
  24   0.0000       0.145620         3.9625

MULLIKEN ATOMIC CHARGES
-----------------------
   0 O :   -0.811100
   1 H :    0.395538
   2 H :    0.414993
   3 O :   -0.805160
   4 H :    0.391583
   5 H :    0.414579
   6 O :   -0.807137
   7 H :    0.414830
   8 H :    0.395264
   9 O :   -0.812819
  10 H :    0.395389
  11 H :    0.414039
Sum of atomic charges:   -0.0000000

LOEWDIN ATOMIC CHARGES
----------------------
   0 O :   -0.409345
   1 H :    0.192756
   2 H :    0.217513
   3 O :   -0.410789
   4 H :    0.191981
   5 H :    0.217363
   6 O :   -0.409857
   7 H :    0.217628
   8 H :    0.192816
   9 O :   -0.410356
  10 H :    0.193015
  11 H :    0.217274

  Mayer bond orders larger than 0.1
B(  0-O ,  1-H ) :   0.7680 B(  0-O ,  2-H ) :   0.8469 B(  0-O ,  4-H ) :   0.1133
B(  1-H ,  6-O ) :   0.1137 B(  3-O ,  4-H ) :   0.7707 B(  3-O ,  5-H ) :   0.8473
B(  3-O , 10-H ) :   0.1112 B(  6-O ,  7-H ) :   0.8472 B(  6-O ,  8-H ) :   0.7709
B(  8-H ,  9-O ) :   0.1103 B(  9-O , 10-H ) :   0.7691 B(  9-O , 11-H ) :   0.8469

Dispersion correction           -0.003132312
FINAL SINGLE POINT ENERGY      -305.827947945630

DIPOLE MOMENT
-------------
                                X             Y             Z
Electronic contribution:     -0.00102      -0.00388      -0.00354
Nuclear contribution   :      0.02261      -0.01029       0.03150
                        -----------------------------------------
Total Dipole Moment    :      0.02159      -0.01417       0.02796
                        -----------------------------------------
Magnitude (a.u.)       :      0.03806
Magnitude (Debye)      :      0.09675

                             ****ORCA TERMINATED NORMALLY****
TOTAL RUN TIME: 0 days 0 hours 1 minutes 33 seconds 579 msec
