                         Program Version 3.0.3 - RELEASE   -
|  1> ! wB97X-D3 MA-Def2-TZVP def2-TZVP/J RIJCOSX TightSCF Grid4
|  2>
|  3> %pal nprocs 1 end
|  4>
|  5> %scf
|  6>         maxiter 400
|  7> end
|  8>
|  9> %cosmo
| 10>         SMD true
| 11>         solvent "WATER"
| 12> end
| 13>
| 14> * xyz  0  1
| 15> O  -0.199050	0.711236	-1.840163
| 16> H  0.206244	-0.132999	-1.502754
| 17> H  -1.072092	0.434878	-2.160883
| 18> O  -0.672001	1.573688	0.669279
| 19> H  -0.526608	1.329953	-0.283268
| 20> H  0.052843	2.188340	0.861395
| 21> O  0.838456	-1.484920	-0.673793
| 22> H  1.797433	-1.347180	-0.633139
| 23> H  0.537390	-1.308383	0.257353
| 24> O  0.051691	-0.788408	1.808654
| 25> H  -0.256343	0.099932	1.484041
| 26> H  -0.774520	-1.267731	1.980460
| 27> **                         ****END OF INPUT****

CARTESIAN COORDINATES (ANGSTROEM)
---------------------------------
  O     -0.199050    0.711236   -1.840163
  H      0.206244   -0.132999   -1.502754
  H     -1.072092    0.434878   -2.160883
  O     -0.672001    1.573688    0.669279
  H     -0.526608    1.329953   -0.283268
  H      0.052843    2.188340    0.861395
  O      0.838456   -1.484920   -0.673793
  H      1.797433   -1.347180   -0.633139
  H      0.537390   -1.308383    0.257353
  O      0.051691   -0.788408    1.808654
  H     -0.256343    0.099932    1.484041
  H     -0.774520   -1.267731    1.980460

 Total Charge           Charge          ....    0
 Multiplicity           Mult            ....    1
 Number of Electrons    NEL             ....   40
 Basis Dimension        Dim             ....  188

ORBITAL ENERGIES
----------------

  NO   OCC          E(Eh)            E(eV)
   0   2.0000     -19.236717      -523.4577
   1   2.0000     -19.235568      -523.4264
   2   2.0000     -19.235507      -523.4248
   3   2.0000     -19.234926      -523.4089
   4   2.0000      -1.141827       -31.0707
   5   2.0000      -1.125105       -30.6157
   6   2.0000      -1.123374       -30.5686
   7   2.0000      -1.107348       -30.1325
   8   2.0000      -0.635291       -17.2872
   9   2.0000      -0.630188       -17.1483
  10   2.0000      -0.626610       -17.0509
  11   2.0000      -0.624669       -16.9981
  12   2.0000      -0.539135       -14.6706
  13   2.0000      -0.508742       -13.8436
  14   2.0000      -0.505185       -13.7468
  15   2.0000      -0.484198       -13.1757
  16   2.0000      -0.424137       -11.5414
  17   2.0000      -0.423383       -11.5208
  18   2.0000      -0.422219       -11.4892
  19   2.0000      -0.417746       -11.3674
  20   0.0000       0.072665         1.9773
  21   0.0000       0.112490         3.0610
  22   0.0000       0.114209         3.1078
  23   0.0000       0.125375         3.4116
  24   0.0000       0.147714         4.0195

MULLIKEN ATOMIC CHARGES
-----------------------
   0 O :   -0.794745
   1 H :    0.397529
   2 H :    0.411219
   3 O :   -0.817298
   4 H :    0.389627
   5 H :    0.410367
   6 O :   -0.815196
   7 H :    0.411296
   8 H :    0.388314
   9 O :   -0.784258
  10 H :    0.392903
  11 H :    0.410241
Sum of atomic charges:   -0.0000000

LOEWDIN ATOMIC CHARGES
----------------------
   0 O :   -0.399807
   1 H :    0.187299
   2 H :    0.212280
   3 O :   -0.402184
   4 H :    0.185207
   5 H :    0.211586
   6 O :   -0.398159
   7 H :    0.212107
   8 H :    0.186153
   9 O :   -0.397380
  10 H :    0.190083
  11 H :    0.212815

  Mayer bond orders larger than 0.1
B(  0-O ,  1-H ) :   0.7941 B(  0-O ,  2-H ) :   0.8499 B(  3-O ,  4-H ) :   0.7913
B(  3-O ,  5-H ) :   0.8493 B(  6-O ,  7-H ) :   0.8492 B(  6-O ,  8-H ) :   0.7887
B(  9-O , 10-H ) :   0.8006 B(  9-O , 11-H ) :   0.8496

Dispersion correction           -0.003093789
FINAL SINGLE POINT ENERGY      -305.832124127692

DIPOLE MOMENT
-------------
                                X             Y             Z
Electronic contribution:     -0.00181      -0.02069       0.01020
Nuclear contribution   :     -0.06147      -0.02196       0.06264
                        -----------------------------------------
Total Dipole Moment    :     -0.06328      -0.04265       0.07284
                        -----------------------------------------
Magnitude (a.u.)       :      0.10549
Magnitude (Debye)      :      0.26813

                             ****ORCA TERMINATED NORMALLY****
TOTAL RUN TIME: 0 days 0 hours 1 minutes 7 seconds 331 msec
