                         Program Version 3.0.3 - RELEASE   -
|  1> ! wB97X-D3 MA-Def2-TZVP def2-TZVP/J RIJCOSX TightSCF Grid4
|  2>
|  3> %pal nprocs 1 end
|  4>
|  5> %scf
|  6>         maxiter 400
|  7> end
|  8>
|  9> * xyz  0  1
| 10> O  -0.120773	0.748703	-1.716064
| 11> H  0.271924	-0.144357	-1.428471
| 12> H  -0.916510	0.488866	-2.217033
| 13> O  -0.782403	1.533492	0.719098
| 14> H  -0.593444	1.307127	-0.254226
| 15> H  -0.171956	2.273031	0.897693
| 16> O  0.749904	-1.539640	-0.728407
| 17> H  1.723706	-1.596020	-0.730125
| 18> H  0.528902	-1.328921	0.241607
| 19> O  0.149095	-0.728141	1.714061
| 20> H  -0.207066	0.181709	1.430402
| 21> H  -0.647936	-1.187444	2.038651
| 22> **                         ****END OF INPUT****

CARTESIAN COORDINATES (ANGSTROEM)
---------------------------------
  O     -0.120773    0.748703   -1.716064
  H      0.271924   -0.144357   -1.428471
  H     -0.916510    0.488866   -2.217033
  O     -0.782403    1.533492    0.719098
  H     -0.593444    1.307127   -0.254226
  H     -0.171956    2.273031    0.897693
  O      0.749904   -1.539640   -0.728407
  H      1.723706   -1.596020   -0.730125
  H      0.528902   -1.328921    0.241607
  O      0.149095   -0.728141    1.714061
  H     -0.207066    0.181709    1.430402
  H     -0.647936   -1.187444    2.038651

 Total Charge           Charge          ....    0
 Multiplicity           Mult            ....    1
 Number of Electrons    NEL             ....   40
 Basis Dimension        Dim             ....  188

ORBITAL ENERGIES
----------------

  NO   OCC          E(Eh)            E(eV)
   0   2.0000     -19.238576      -523.5083
   1   2.0000     -19.238364      -523.5025
   2   2.0000     -19.238085      -523.4949
   3   2.0000     -19.238063      -523.4943
   4   2.0000      -1.142928       -31.1007
   5   2.0000      -1.122881       -30.5551
   6   2.0000      -1.122619       -30.5480
   7   2.0000      -1.103030       -30.0150
   8   2.0000      -0.641316       -17.4511
   9   2.0000      -0.628492       -17.1021
  10   2.0000      -0.627969       -17.0879
  11   2.0000      -0.623558       -16.9679
  12   2.0000      -0.547217       -14.8905
  13   2.0000      -0.506945       -13.7947
  14   2.0000      -0.505731       -13.7616
  15   2.0000      -0.472586       -12.8597
  16   2.0000      -0.420105       -11.4316
  17   2.0000      -0.419722       -11.4212
  18   2.0000      -0.419709       -11.4209
  19   2.0000      -0.414685       -11.2841
  20   0.0000       0.063090         1.7168
  21   0.0000       0.102715         2.7950
  22   0.0000       0.103147         2.8068
  23   0.0000       0.114780         3.1233
  24   0.0000       0.143169         3.8958

MULLIKEN ATOMIC CHARGES
-----------------------
   0 O :   -0.734756
   1 H :    0.386560
   2 H :    0.350192
   3 O :   -0.736472
   4 H :    0.384797
   5 H :    0.350544
   6 O :   -0.737060
   7 H :    0.350377
   8 H :    0.384655
   9 O :   -0.735721
  10 H :    0.386605
  11 H :    0.350279
Sum of atomic charges:    0.0000000

LOEWDIN ATOMIC CHARGES
----------------------
   0 O :   -0.385703
   1 H :    0.191600
   2 H :    0.194365
   3 O :   -0.385661
   4 H :    0.191446
   5 H :    0.194481
   6 O :   -0.386147
   7 H :    0.194409
   8 H :    0.191531
   9 O :   -0.386139
  10 H :    0.191591
  11 H :    0.194228

  Mayer bond orders larger than 0.1
B(  0-O ,  1-H ) :   0.7815 B(  0-O ,  2-H ) :   0.8933 B(  0-O ,  4-H ) :   0.1114
B(  1-H ,  6-O ) :   0.1085 B(  3-O ,  4-H ) :   0.7802 B(  3-O ,  5-H ) :   0.8924
B(  3-O , 10-H ) :   0.1089 B(  6-O ,  7-H ) :   0.8917 B(  6-O ,  8-H ) :   0.7801
B(  8-H ,  9-O ) :   0.1109 B(  9-O , 10-H ) :   0.7807 B(  9-O , 11-H ) :   0.8930

Dispersion correction           -0.003068250
FINAL SINGLE POINT ENERGY      -305.804428839364

DIPOLE MOMENT
-------------
                                X             Y             Z
Electronic contribution:      0.00265       0.00666      -0.00053
Nuclear contribution   :     -0.00335      -0.02900       0.00093
                        -----------------------------------------
Total Dipole Moment    :     -0.00070      -0.02234       0.00040
                        -----------------------------------------
Magnitude (a.u.)       :      0.02235
Magnitude (Debye)      :      0.05682

                             ****ORCA TERMINATED NORMALLY****
TOTAL RUN TIME: 0 days 0 hours 1 minutes 2 seconds 879 msec
