                         Program Version 4.2.0 -  RELEASE  -
|  1> # 12h2o.su.etal.mol3,6,9
|  2> ! MP2 def2-TZVP EnGrad TightSCF
|  3>
|  4> %pal
|  5>     nprocs 6
|  6> end
|  7>
|  8> %maxcore 8000
|  9>
| 10> %scf
| 11>     ConvForced true
| 12> end
| 13>
| 14> *xyz 0 1
| 15> O  -1.752130000  -0.741530000  -2.896280000
| 16> H  -2.036450000  -0.920500000  -1.984040000
| 17> H  -0.921210000  -1.242140000  -2.984230000
| 18> O   1.737840000   0.885520000  -0.052730000
| 19> H   2.090180000   1.032320000   0.841890000
| 20> H   0.839590000   1.284090000  -0.017130000
| 21> O   0.741530000  -1.752130000   2.896280000
| 22> H   0.920500000  -2.036450000   1.984040000
| 23> H   1.242140000  -0.921210000   2.984230000
| 24> *
| 25>
| 26>                          ****END OF INPUT****

CARTESIAN COORDINATES (ANGSTROEM)
---------------------------------
  O     -1.752130   -0.741530   -2.896280
  H     -2.036450   -0.920500   -1.984040
  H     -0.921210   -1.242140   -2.984230
  O      1.737840    0.885520   -0.052730
  H      2.090180    1.032320    0.841890
  H      0.839590    1.284090   -0.017130
  O      0.741530   -1.752130    2.896280
  H      0.920500   -2.036450    1.984040
  H      1.242140   -0.921210    2.984230

 Total Charge           Charge          ....    0
 Multiplicity           Mult            ....    1
 Number of Electrons    NEL             ....   30
 Basis Dimension        Dim             ....  129

ORBITAL ENERGIES
----------------

  NO   OCC          E(Eh)            E(eV)
   0   2.0000     -20.580502      -560.0239
   1   2.0000     -20.570249      -559.7449
   2   2.0000     -20.563767      -559.5686
   3   2.0000      -1.356294       -36.9066
   4   2.0000      -1.349371       -36.7183
   5   2.0000      -1.342986       -36.5445
   6   2.0000      -0.718310       -19.5462
   7   2.0000      -0.712231       -19.3808
   8   2.0000      -0.705767       -19.2049
   9   2.0000      -0.595368       -16.2008
  10   2.0000      -0.586681       -15.9644
  11   2.0000      -0.580414       -15.7939
  12   2.0000      -0.523052       -14.2330
  13   2.0000      -0.514091       -13.9891
  14   2.0000      -0.507811       -13.8182
  15   0.0000       0.085352         2.3225
  16   0.0000       0.121857         3.3159
  17   0.0000       0.154832         4.2132
  18   0.0000       0.176356         4.7989
  19   0.0000       0.198353         5.3975

MULLIKEN ATOMIC CHARGES
-----------------------
   0 O :   -0.674360
   1 H :    0.334934
   2 H :    0.339818
   3 O :   -0.673169
   4 H :    0.330539
   5 H :    0.344124
   6 O :   -0.670300
   7 H :    0.340381
   8 H :    0.328035
Sum of atomic charges:    0.0000000

LOEWDIN ATOMIC CHARGES
----------------------
   0 O :   -0.331940
   1 H :    0.164367
   2 H :    0.167854
   3 O :   -0.334865
   4 H :    0.161271
   5 H :    0.175016
   6 O :   -0.329477
   7 H :    0.166053
   8 H :    0.161723

  Mayer bond orders larger than 0.100000
B(  0-O ,  1-H ) :   0.8545 B(  0-O ,  2-H ) :   0.8514 B(  3-O ,  4-H ) :   0.8555
B(  3-O ,  5-H ) :   0.8465 B(  6-O ,  7-H ) :   0.8506 B(  6-O ,  8-H ) :   0.8576

MP2 TOTAL ENERGY:     -228.939501510 Eh
FINAL SINGLE POINT ENERGY      -228.939501509635

DIPOLE MOMENT
-------------
                                X             Y             Z
Electronic contribution:     -0.09094      -0.05289      -0.16061
Nuclear contribution   :      0.56623       0.34326       0.77428
                        -----------------------------------------
Total Dipole Moment    :      0.47529       0.29036       0.61367
                        -----------------------------------------
Magnitude (a.u.)       :      0.82874
Magnitude (Debye)      :      2.10648

Rotational constants in cm-1:     0.150928     0.046009     0.035588
Rotational constants in MHz :  4524.702523  1379.325624  1066.899247

                             ****ORCA TERMINATED NORMALLY****
TOTAL RUN TIME: 0 days 0 hours 0 minutes 7 seconds 870 msec
