                         Program Version 4.2.0 -  RELEASE  -
|  1> # 12h2o.su.etal.mol2,4,7,10
|  2> ! MP2 def2-TZVP EnGrad TightSCF
|  3>
|  4> %pal
|  5>     nprocs 6
|  6> end
|  7>
|  8> %maxcore 8000
|  9>
| 10> %scf
| 11>     ConvForced true
| 12> end
| 13>
| 14> *xyz 0 1
| 15> O   0.923410000  -1.794470000  -2.768350000
| 16> H   1.359750000  -2.338250000  -3.430940000
| 17> H   1.303000000  -0.879480000  -2.865760000
| 18> O  -0.885520000   1.737840000   0.052730000
| 19> H  -1.032320000   2.090180000  -0.841890000
| 20> H  -1.284090000   0.839590000   0.017130000
| 21> O  -1.737840000  -0.885520000  -0.052730000
| 22> H  -2.090180000  -1.032320000   0.841890000
| 23> H  -0.839590000  -1.284090000  -0.017130000
| 24> O  -0.923410000   1.794470000  -2.768350000
| 25> H  -1.359750000   2.338250000  -3.430940000
| 26> H  -1.303000000   0.879480000  -2.865760000
| 27> *
| 28>
| 29>                          ****END OF INPUT****

CARTESIAN COORDINATES (ANGSTROEM)
---------------------------------
  O      0.923410   -1.794470   -2.768350
  H      1.359750   -2.338250   -3.430940
  H      1.303000   -0.879480   -2.865760
  O     -0.885520    1.737840    0.052730
  H     -1.032320    2.090180   -0.841890
  H     -1.284090    0.839590    0.017130
  O     -1.737840   -0.885520   -0.052730
  H     -2.090180   -1.032320    0.841890
  H     -0.839590   -1.284090   -0.017130
  O     -0.923410    1.794470   -2.768350
  H     -1.359750    2.338250   -3.430940
  H     -1.303000    0.879480   -2.865760

 Total Charge           Charge          ....    0
 Multiplicity           Mult            ....    1
 Number of Electrons    NEL             ....   40
 Basis Dimension        Dim             ....  172

ORBITAL ENERGIES
----------------

  NO   OCC          E(Eh)            E(eV)
   0   2.0000     -20.582444      -560.0768
   1   2.0000     -20.577849      -559.9517
   2   2.0000     -20.570552      -559.7532
   3   2.0000     -20.491853      -557.6117
   4   2.0000      -1.363073       -37.0911
   5   2.0000      -1.355650       -36.8891
   6   2.0000      -1.345839       -36.6221
   7   2.0000      -1.276574       -34.7373
   8   2.0000      -0.723165       -19.6783
   9   2.0000      -0.720577       -19.6079
  10   2.0000      -0.713711       -19.4211
  11   2.0000      -0.662088       -18.0163
  12   2.0000      -0.605876       -16.4867
  13   2.0000      -0.589964       -16.0537
  14   2.0000      -0.582780       -15.8582
  15   2.0000      -0.546299       -14.8655
  16   2.0000      -0.516968       -14.0674
  17   2.0000      -0.513824       -13.9819
  18   2.0000      -0.493729       -13.4350
  19   2.0000      -0.442935       -12.0529
  20   0.0000       0.102178         2.7804
  21   0.0000       0.136782         3.7220
  22   0.0000       0.137898         3.7524
  23   0.0000       0.196010         5.3337
  24   0.0000       0.208688         5.6787

MULLIKEN ATOMIC CHARGES
-----------------------
   0 O :   -0.693634
   1 H :    0.341916
   2 H :    0.353705
   3 O :   -0.734154
   4 H :    0.356742
   5 H :    0.334346
   6 O :   -0.686620
   7 H :    0.353896
   8 H :    0.366104
   9 O :   -0.698373
  10 H :    0.345301
  11 H :    0.360772
Sum of atomic charges:    0.0000000

LOEWDIN ATOMIC CHARGES
----------------------
   0 O :   -0.342024
   1 H :    0.159672
   2 H :    0.184327
   3 O :   -0.373023
   4 H :    0.142791
   5 H :    0.133644
   6 O :   -0.293443
   7 H :    0.171801
   8 H :    0.182555
   9 O :   -0.312733
  10 H :    0.160217
  11 H :    0.186216

  Mayer bond orders larger than 0.100000
B(  0-O ,  1-H ) :   0.8510 B(  0-O ,  2-H ) :   0.8363 B(  3-O ,  4-H ) :   0.8315
B(  3-O ,  5-H ) :   0.8166 B(  6-O ,  7-H ) :   0.8401 B(  6-O ,  8-H ) :   0.8277
B(  9-O , 10-H ) :   0.8451 B(  9-O , 11-H ) :   0.8280

MP2 TOTAL ENERGY:     -305.266643329 Eh
FINAL SINGLE POINT ENERGY      -305.266643329223

DIPOLE MOMENT
-------------
                                X             Y             Z
Electronic contribution:     -0.02914      -0.08809       0.02759
Nuclear contribution   :      0.00045      -0.90834      -1.26519
                        -----------------------------------------
Total Dipole Moment    :     -0.02869      -0.99643      -1.23760
                        -----------------------------------------
Magnitude (a.u.)       :      1.58914
Magnitude (Debye)      :      4.03926

Rotational constants in cm-1:     0.099934     0.066413     0.045049
Rotational constants in MHz :  2995.939930  1991.017149  1350.529828

                             ****ORCA TERMINATED NORMALLY****
TOTAL RUN TIME: 0 days 0 hours 0 minutes 18 seconds 498 msec
