                         Program Version 4.2.0 -  RELEASE  -
|  1> # 12mecn.remya.etal.2.mol5,7,11
|  2> ! MP2 def2-TZVP EnGrad TightSCF
|  3>
|  4> %pal
|  5>     nprocs 6
|  6> end
|  7>
|  8> %maxcore 8000
|  9>
| 10> %scf
| 11>     ConvForced true
| 12> end
| 13>
| 14> *xyz 0 1
| 15> C  -1.955700000   2.515080000   1.698463000
| 16> H  -2.923830000   2.883163000   2.049269000
| 17> H  -1.154850000   3.171830000   2.050990000
| 18> H  -1.790380000   1.506115000   2.087896000
| 19> C  -1.948230000   2.482156000   0.253672000
| 20> N  -1.937550000   2.462523000  -0.913150000
| 21> C   1.502241000   0.651296000   1.710523000
| 22> H   1.309219000   1.637164000   2.143202000
| 23> H   2.493408000   0.297996000   2.009069000
| 24> H   0.746597000  -0.059850000   2.055508000
| 25> C   1.447974000   0.738517000   0.269805000
| 26> N   1.405612000   0.808047000  -0.894380000
| 27> C   4.214163000   3.378139000   1.593627000
| 28> H   3.242643000   3.657109000   2.012358000
| 29> H   4.969258000   4.086643000   1.941290000
| 30> H   4.482966000   2.372549000   1.931698000
| 31> C   4.130759000   3.388436000   0.150192000
| 32> N   4.050180000   3.381449000  -1.013420000
| 33> *
| 34>
| 35>                          ****END OF INPUT****

CARTESIAN COORDINATES (ANGSTROEM)
---------------------------------
  C     -1.955700    2.515080    1.698463
  H     -2.923830    2.883163    2.049269
  H     -1.154850    3.171830    2.050990
  H     -1.790380    1.506115    2.087896
  C     -1.948230    2.482156    0.253672
  N     -1.937550    2.462523   -0.913150
  C      1.502241    0.651296    1.710523
  H      1.309219    1.637164    2.143202
  H      2.493408    0.297996    2.009069
  H      0.746597   -0.059850    2.055508
  C      1.447974    0.738517    0.269805
  N      1.405612    0.808047   -0.894380
  C      4.214163    3.378139    1.593627
  H      3.242643    3.657109    2.012358
  H      4.969258    4.086643    1.941290
  H      4.482966    2.372549    1.931698
  C      4.130759    3.388436    0.150192
  N      4.050180    3.381449   -1.013420

 Total Charge           Charge          ....    0
 Multiplicity           Mult            ....    1
 Number of Electrons    NEL             ....   66
 Basis Dimension        Dim             ....  333

ORBITAL ENERGIES
----------------

  NO   OCC          E(Eh)            E(eV)
   0   2.0000     -15.571625      -423.7255
   1   2.0000     -15.571194      -423.7137
   2   2.0000     -15.571091      -423.7109
   3   2.0000     -11.295022      -307.3532
   4   2.0000     -11.291642      -307.2612
   5   2.0000     -11.291138      -307.2475
   6   2.0000     -11.275995      -306.8354
   7   2.0000     -11.275552      -306.8234
   8   2.0000     -11.273740      -306.7741
   9   2.0000      -1.212032       -32.9811
  10   2.0000      -1.211081       -32.9552
  11   2.0000      -1.209721       -32.9182
  12   2.0000      -1.052162       -28.6308
  13   2.0000      -1.047916       -28.5152
  14   2.0000      -1.047061       -28.4920
  15   2.0000      -0.706233       -19.2176
  16   2.0000      -0.703614       -19.1463
  17   2.0000      -0.701991       -19.1021
  18   2.0000      -0.647529       -17.6202
  19   2.0000      -0.646568       -17.5940
  20   2.0000      -0.638100       -17.3636
  21   2.0000      -0.636995       -17.3335
  22   2.0000      -0.633439       -17.2367
  23   2.0000      -0.631325       -17.1792
  24   2.0000      -0.552930       -15.0460
  25   2.0000      -0.551625       -15.0105
  26   2.0000      -0.548765       -14.9327
  27   2.0000      -0.463057       -12.6004
  28   2.0000      -0.460879       -12.5412
  29   2.0000      -0.455212       -12.3869
  30   2.0000      -0.454447       -12.3661
  31   2.0000      -0.447480       -12.1765
  32   2.0000      -0.444699       -12.1009
  33   0.0000       0.080666         2.1950
  34   0.0000       0.120526         3.2797
  35   0.0000       0.126110         3.4316
  36   0.0000       0.148252         4.0341
  37   0.0000       0.153819         4.1856

MULLIKEN ATOMIC CHARGES
-----------------------
   0 C :   -0.289062
   1 H :    0.182528
   2 H :    0.163511
   3 H :    0.163666
   4 C :   -0.151756
   5 N :   -0.068795
   6 C :   -0.293146
   7 H :    0.153341
   8 H :    0.175858
   9 H :    0.180391
  10 C :   -0.159666
  11 N :   -0.057046
  12 C :   -0.282364
  13 H :    0.158550
  14 H :    0.183199
  15 H :    0.163512
  16 C :   -0.156056
  17 N :   -0.066666
Sum of atomic charges:    0.0000000

LOEWDIN ATOMIC CHARGES
----------------------
   0 C :   -0.289163
   1 H :    0.153444
   2 H :    0.148489
   3 H :    0.148254
   4 C :   -0.225243
   5 N :    0.064151
   6 C :   -0.292575
   7 H :    0.144199
   8 H :    0.151138
   9 H :    0.151787
  10 C :   -0.230773
  11 N :    0.076203
  12 C :   -0.288945
  13 H :    0.147597
  14 H :    0.151972
  15 H :    0.149253
  16 C :   -0.225042
  17 N :    0.065252

  Mayer bond orders larger than 0.100000
B(  0-C ,  1-H ) :   0.9120 B(  0-C ,  2-H ) :   0.9236 B(  0-C ,  3-H ) :   0.9205
B(  0-C ,  4-C ) :   0.8968 B(  4-C ,  5-N ) :   2.8244 B(  6-C ,  7-H ) :   0.9259
B(  6-C ,  8-H ) :   0.9186 B(  6-C ,  9-H ) :   0.9172 B(  6-C , 10-C ) :   0.8879
B( 10-C , 11-N ) :   2.8072 B( 12-C , 13-H ) :   0.9235 B( 12-C , 14-H ) :   0.9112
B( 12-C , 15-H ) :   0.9210 B( 12-C , 16-C ) :   0.9003 B( 16-C , 17-N ) :   2.8239

MP2 TOTAL ENERGY:     -397.444097660 Eh
FINAL SINGLE POINT ENERGY      -397.444097660360

DIPOLE MOMENT
-------------
                                X             Y             Z
Electronic contribution:     -0.28732       0.16038      -9.71938
Nuclear contribution   :      0.42012      -0.22637      13.90064
                        -----------------------------------------
Total Dipole Moment    :      0.13280      -0.06599       4.18126
                        -----------------------------------------
Magnitude (a.u.)       :      4.18389
Magnitude (Debye)      :     10.63459

Rotational constants in cm-1:     0.056068     0.018315     0.017890
Rotational constants in MHz :  1680.881625   549.082675   536.319312

                             ****ORCA TERMINATED NORMALLY****
TOTAL RUN TIME: 0 days 0 hours 4 minutes 36 seconds 196 msec
