                         Program Version 4.2.0 -  RELEASE  -
|  1> # 12h2o.su.etal.mol0,2,4,8,10,11
|  2> ! MP2 def2-TZVP EnGrad TightSCF
|  3>
|  4> %pal
|  5>     nprocs 6
|  6> end
|  7>
|  8> %maxcore 8000
|  9>
| 10> %scf
| 11>     ConvForced true
| 12> end
| 13>
| 14> *xyz 0 1
| 15> O   1.794470000   0.923410000   2.768350000
| 16> H   2.338250000   1.359750000   3.430940000
| 17> H   0.879480000   1.303000000   2.865760000
| 18> O   0.923410000  -1.794470000  -2.768350000
| 19> H   1.359750000  -2.338250000  -3.430940000
| 20> H   1.303000000  -0.879480000  -2.865760000
| 21> O  -0.885520000   1.737840000   0.052730000
| 22> H  -1.032320000   2.090180000  -0.841890000
| 23> H  -1.284090000   0.839590000   0.017130000
| 24> O   1.752130000   0.741530000  -2.896280000
| 25> H   2.036450000   0.920500000  -1.984040000
| 26> H   0.921210000   1.242140000  -2.984230000
| 27> O  -0.923410000   1.794470000  -2.768350000
| 28> H  -1.359750000   2.338250000  -3.430940000
| 29> H  -1.303000000   0.879480000  -2.865760000
| 30> O  -0.741530000   1.752130000   2.896280000
| 31> H  -0.920500000   2.036450000   1.984040000
| 32> H  -1.242140000   0.921210000   2.984230000
| 33> *
| 34>
| 35>                          ****END OF INPUT****

CARTESIAN COORDINATES (ANGSTROEM)
---------------------------------
  O      1.794470    0.923410    2.768350
  H      2.338250    1.359750    3.430940
  H      0.879480    1.303000    2.865760
  O      0.923410   -1.794470   -2.768350
  H      1.359750   -2.338250   -3.430940
  H      1.303000   -0.879480   -2.865760
  O     -0.885520    1.737840    0.052730
  H     -1.032320    2.090180   -0.841890
  H     -1.284090    0.839590    0.017130
  O      1.752130    0.741530   -2.896280
  H      2.036450    0.920500   -1.984040
  H      0.921210    1.242140   -2.984230
  O     -0.923410    1.794470   -2.768350
  H     -1.359750    2.338250   -3.430940
  H     -1.303000    0.879480   -2.865760
  O     -0.741530    1.752130    2.896280
  H     -0.920500    2.036450    1.984040
  H     -1.242140    0.921210    2.984230

 Total Charge           Charge          ....    0
 Multiplicity           Mult            ....    1
 Number of Electrons    NEL             ....   60
 Basis Dimension        Dim             ....  258

ORBITAL ENERGIES
----------------

  NO   OCC          E(Eh)            E(eV)
   0   2.0000     -20.630795      -561.3925
   1   2.0000     -20.576495      -559.9149
   2   2.0000     -20.571674      -559.7837
   3   2.0000     -20.563648      -559.5653
   4   2.0000     -20.518410      -558.3343
   5   2.0000     -20.501383      -557.8710
   6   2.0000      -1.411164       -38.3997
   7   2.0000      -1.360849       -37.0306
   8   2.0000      -1.360122       -37.0108
   9   2.0000      -1.348890       -36.7052
  10   2.0000      -1.300375       -35.3850
  11   2.0000      -1.283559       -34.9274
  12   2.0000      -0.776614       -21.1327
  13   2.0000      -0.730463       -19.8769
  14   2.0000      -0.723969       -19.7002
  15   2.0000      -0.710186       -19.3251
  16   2.0000      -0.688361       -18.7313
  17   2.0000      -0.672227       -18.2922
  18   2.0000      -0.650677       -17.7058
  19   2.0000      -0.615690       -16.7538
  20   2.0000      -0.600298       -16.3349
  21   2.0000      -0.582525       -15.8513
  22   2.0000      -0.563486       -15.3332
  23   2.0000      -0.546973       -14.8839
  24   2.0000      -0.533891       -14.5279
  25   2.0000      -0.522717       -14.2238
  26   2.0000      -0.502954       -13.6861
  27   2.0000      -0.490676       -13.3520
  28   2.0000      -0.469112       -12.7652
  29   2.0000      -0.451887       -12.2965
  30   0.0000       0.080344         2.1863
  31   0.0000       0.124462         3.3868
  32   0.0000       0.150654         4.0995
  33   0.0000       0.161728         4.4008
  34   0.0000       0.179170         4.8755

MULLIKEN ATOMIC CHARGES
-----------------------
   0 O :   -0.734037
   1 H :    0.319024
   2 H :    0.368110
   3 O :   -0.740234
   4 H :    0.326473
   5 H :    0.365125
   6 O :   -0.706456
   7 H :    0.374473
   8 H :    0.335961
   9 O :   -0.701977
  10 H :    0.366495
  11 H :    0.368642
  12 O :   -0.722762
  13 H :    0.370168
  14 H :    0.378311
  15 O :   -0.693039
  16 H :    0.385232
  17 H :    0.340491
Sum of atomic charges:   -0.0000000

LOEWDIN ATOMIC CHARGES
----------------------
   0 O :   -0.374139
   1 H :    0.145418
   2 H :    0.142337
   3 O :   -0.376987
   4 H :    0.148972
   5 H :    0.140719
   6 O :   -0.322313
   7 H :    0.152843
   8 H :    0.170457
   9 O :   -0.281516
  10 H :    0.176794
  11 H :    0.150666
  12 O :   -0.287531
  13 H :    0.170931
  14 H :    0.195024
  15 O :   -0.277965
  16 H :    0.158513
  17 H :    0.167777

  Mayer bond orders larger than 0.100000
B(  0-O ,  1-H ) :   0.8638 B(  0-O ,  2-H ) :   0.7820 B(  3-O ,  4-H ) :   0.8600
B(  3-O ,  5-H ) :   0.7775 B(  6-O ,  7-H ) :   0.8112 B(  6-O ,  8-H ) :   0.8468
B(  9-O , 10-H ) :   0.8314 B(  9-O , 11-H ) :   0.8113 B( 12-O , 13-H ) :   0.8287
B( 12-O , 14-H ) :   0.8136 B( 15-O , 16-H ) :   0.8000 B( 15-O , 17-H ) :   0.8476

MP2 TOTAL ENERGY:     -457.917366711 Eh
FINAL SINGLE POINT ENERGY      -457.917366711317

DIPOLE MOMENT
-------------
                                X             Y             Z
Electronic contribution:     -0.07832       0.45715      -0.15835
Nuclear contribution   :     -1.78355       0.33544      -1.40687
                        -----------------------------------------
Total Dipole Moment    :     -1.86187       0.79259      -1.56522
                        -----------------------------------------
Magnitude (a.u.)       :      2.55826
Magnitude (Debye)      :      6.50257

Rotational constants in cm-1:     0.056982     0.020899     0.017462
Rotational constants in MHz :  1708.271479   626.527205   523.510760

                             ****ORCA TERMINATED NORMALLY****
TOTAL RUN TIME: 0 days 0 hours 0 minutes 55 seconds 844 msec
