                         Program Version 4.2.0 -  RELEASE  -
|  1> # 12h2o.su.etal.mol2,3,6,7,8
|  2> ! MP2 def2-TZVP EnGrad TightSCF
|  3>
|  4> %pal
|  5>     nprocs 6
|  6> end
|  7>
|  8> %maxcore 8000
|  9>
| 10> %scf
| 11>     ConvForced true
| 12> end
| 13>
| 14> *xyz 0 1
| 15> O   0.923410000  -1.794470000  -2.768350000
| 16> H   1.359750000  -2.338250000  -3.430940000
| 17> H   1.303000000  -0.879480000  -2.865760000
| 18> O  -1.752130000  -0.741530000  -2.896280000
| 19> H  -2.036450000  -0.920500000  -1.984040000
| 20> H  -0.921210000  -1.242140000  -2.984230000
| 21> O   1.737840000   0.885520000  -0.052730000
| 22> H   2.090180000   1.032320000   0.841890000
| 23> H   0.839590000   1.284090000  -0.017130000
| 24> O  -1.737840000  -0.885520000  -0.052730000
| 25> H  -2.090180000  -1.032320000   0.841890000
| 26> H  -0.839590000  -1.284090000  -0.017130000
| 27> O   1.752130000   0.741530000  -2.896280000
| 28> H   2.036450000   0.920500000  -1.984040000
| 29> H   0.921210000   1.242140000  -2.984230000
| 30> *
| 31>
| 32>                          ****END OF INPUT****

CARTESIAN COORDINATES (ANGSTROEM)
---------------------------------
  O      0.923410   -1.794470   -2.768350
  H      1.359750   -2.338250   -3.430940
  H      1.303000   -0.879480   -2.865760
  O     -1.752130   -0.741530   -2.896280
  H     -2.036450   -0.920500   -1.984040
  H     -0.921210   -1.242140   -2.984230
  O      1.737840    0.885520   -0.052730
  H      2.090180    1.032320    0.841890
  H      0.839590    1.284090   -0.017130
  O     -1.737840   -0.885520   -0.052730
  H     -2.090180   -1.032320    0.841890
  H     -0.839590   -1.284090   -0.017130
  O      1.752130    0.741530   -2.896280
  H      2.036450    0.920500   -1.984040
  H      0.921210    1.242140   -2.984230

 Total Charge           Charge          ....    0
 Multiplicity           Mult            ....    1
 Number of Electrons    NEL             ....   50
 Basis Dimension        Dim             ....  215

ORBITAL ENERGIES
----------------

  NO   OCC          E(Eh)            E(eV)
   0   2.0000     -20.601858      -560.6051
   1   2.0000     -20.582137      -560.0684
   2   2.0000     -20.569828      -559.7335
   3   2.0000     -20.532315      -558.7127
   4   2.0000     -20.496215      -557.7304
   5   2.0000      -1.380942       -37.5774
   6   2.0000      -1.360397       -37.0183
   7   2.0000      -1.357965       -36.9521
   8   2.0000      -1.316033       -35.8111
   9   2.0000      -1.281110       -34.8608
  10   2.0000      -0.743923       -20.2432
  11   2.0000      -0.722061       -19.6483
  12   2.0000      -0.718169       -19.5424
  13   2.0000      -0.700053       -19.0494
  14   2.0000      -0.659355       -17.9420
  15   2.0000      -0.628055       -17.0903
  16   2.0000      -0.602546       -16.3961
  17   2.0000      -0.591586       -16.0979
  18   2.0000      -0.559853       -15.2344
  19   2.0000      -0.545651       -14.8479
  20   2.0000      -0.531308       -14.4576
  21   2.0000      -0.516359       -14.0508
  22   2.0000      -0.504167       -13.7191
  23   2.0000      -0.478750       -13.0274
  24   2.0000      -0.446434       -12.1481
  25   0.0000       0.091034         2.4772
  26   0.0000       0.132182         3.5969
  27   0.0000       0.151846         4.1319
  28   0.0000       0.169430         4.6104
  29   0.0000       0.201887         5.4936

MULLIKEN ATOMIC CHARGES
-----------------------
   0 O :   -0.741591
   1 H :    0.335724
   2 H :    0.383018
   3 O :   -0.736261
   4 H :    0.361250
   5 H :    0.347925
   6 O :   -0.699893
   7 H :    0.354413
   8 H :    0.354917
   9 O :   -0.698900
  10 H :    0.342800
  11 H :    0.358593
  12 O :   -0.700785
  13 H :    0.384460
  14 H :    0.354330
Sum of atomic charges:   -0.0000000

LOEWDIN ATOMIC CHARGES
----------------------
   0 O :   -0.342497
   1 H :    0.153140
   2 H :    0.145785
   3 O :   -0.359856
   4 H :    0.147643
   5 H :    0.141197
   6 O :   -0.317876
   7 H :    0.173331
   8 H :    0.177635
   9 O :   -0.319505
  10 H :    0.167247
  11 H :    0.177872
  12 O :   -0.275608
  13 H :    0.158957
  14 H :    0.172535

  Mayer bond orders larger than 0.100000
B(  0-O ,  1-H ) :   0.8515 B(  0-O ,  2-H ) :   0.7580 B(  3-O ,  4-H ) :   0.8313
B(  3-O ,  5-H ) :   0.8164 B(  6-O ,  7-H ) :   0.8400 B(  6-O ,  8-H ) :   0.8328
B(  9-O , 10-H ) :   0.8454 B(  9-O , 11-H ) :   0.8296 B( 12-O , 13-H ) :   0.8043
B( 12-O , 14-H ) :   0.8354

MP2 TOTAL ENERGY:     -381.601224747 Eh
FINAL SINGLE POINT ENERGY      -381.601224747029

DIPOLE MOMENT
-------------
                                X             Y             Z
Electronic contribution:      0.18330       0.19874      -0.05698
Nuclear contribution   :      0.67915       0.30898       2.28818
                        -----------------------------------------
Total Dipole Moment    :      0.86245       0.50772       2.23120
                        -----------------------------------------
Magnitude (a.u.)       :      2.44537
Magnitude (Debye)      :      6.21564

Rotational constants in cm-1:     0.070335     0.053411     0.036920
Rotational constants in MHz :  2108.603444  1601.229271  1106.838089

                             ****ORCA TERMINATED NORMALLY****
TOTAL RUN TIME: 0 days 0 hours 0 minutes 34 seconds 35 msec
