                         Program Version 4.2.0 -  RELEASE  -
|  1> # 12meoh.boyd.etal.mol2,3,4
|  2> ! MP2 def2-TZVP EnGrad TightSCF
|  3>
|  4> %pal
|  5>     nprocs 6
|  6> end
|  7>
|  8> %maxcore 8000
|  9>
| 10> %scf
| 11>     ConvForced true
| 12> end
| 13>
| 14> *xyz 0 1
| 15> O  -3.839777402   2.233595098   0.660436763
| 16> H  -2.958345897   1.907036203   0.973588449
| 17> C  -3.600368059   3.168790682  -0.390480452
| 18> H  -4.551709193   3.344148967  -0.901254863
| 19> H  -2.868237594   2.789240199  -1.113617525
| 20> H  -3.243594915   4.128998607   0.009549480
| 21> O  -3.821405976  -2.118091637   0.596795346
| 22> H  -4.342989117  -1.344303030   0.251966383
| 23> C  -3.443883586  -1.809641231   1.934889393
| 24> H  -2.831494349  -2.637429600   2.305201764
| 25> H  -4.325601146  -1.719364371   2.585074667
| 26> H  -2.858527126  -0.882644791   1.996110694
| 27> O  -1.358578914   1.232360421   1.189721000
| 28> H  -1.058250183   1.216459361   0.238591307
| 29> C  -0.389763452   1.957872567   1.943072362
| 30> H  -0.747220771   2.012806578   2.975200343
| 31> H  -0.260410585   2.982763209   1.565366540
| 32> H   0.585220638   1.453754179   1.934070793
| 33> *
| 34>
| 35>                          ****END OF INPUT****

CARTESIAN COORDINATES (ANGSTROEM)
---------------------------------
  O     -3.839777    2.233595    0.660437
  H     -2.958346    1.907036    0.973588
  C     -3.600368    3.168791   -0.390480
  H     -4.551709    3.344149   -0.901255
  H     -2.868238    2.789240   -1.113618
  H     -3.243595    4.128999    0.009549
  O     -3.821406   -2.118092    0.596795
  H     -4.342989   -1.344303    0.251966
  C     -3.443884   -1.809641    1.934889
  H     -2.831494   -2.637430    2.305202
  H     -4.325601   -1.719364    2.585075
  H     -2.858527   -0.882645    1.996111
  O     -1.358579    1.232360    1.189721
  H     -1.058250    1.216459    0.238591
  C     -0.389763    1.957873    1.943072
  H     -0.747221    2.012807    2.975200
  H     -0.260411    2.982763    1.565367
  H      0.585221    1.453754    1.934071

 Total Charge           Charge          ....    0
 Multiplicity           Mult            ....    1
 Number of Electrons    NEL             ....   54
 Basis Dimension        Dim             ....  258

ORBITAL ENERGIES
----------------

  NO   OCC          E(Eh)            E(eV)
   0   2.0000     -20.596152      -560.4498
   1   2.0000     -20.542626      -558.9933
   2   2.0000     -20.529166      -558.6270
   3   2.0000     -11.296310      -307.3882
   4   2.0000     -11.264227      -306.5152
   5   2.0000     -11.254842      -306.2598
   6   2.0000      -1.387472       -37.7550
   7   2.0000      -1.331668       -36.2365
   8   2.0000      -1.325163       -36.0595
   9   2.0000      -0.947953       -25.7951
  10   2.0000      -0.910207       -24.7680
  11   2.0000      -0.903346       -24.5813
  12   2.0000      -0.716537       -19.4980
  13   2.0000      -0.686799       -18.6887
  14   2.0000      -0.665747       -18.1159
  15   2.0000      -0.639846       -17.4111
  16   2.0000      -0.619559       -16.8591
  17   2.0000      -0.605188       -16.4680
  18   2.0000      -0.600819       -16.3491
  19   2.0000      -0.575614       -15.6633
  20   2.0000      -0.574753       -15.6398
  21   2.0000      -0.533891       -14.5279
  22   2.0000      -0.498894       -13.5756
  23   2.0000      -0.485107       -13.2004
  24   2.0000      -0.468876       -12.7588
  25   2.0000      -0.433723       -11.8022
  26   2.0000      -0.431658       -11.7460
  27   0.0000       0.106869         2.9081
  28   0.0000       0.148834         4.0500
  29   0.0000       0.159064         4.3284
  30   0.0000       0.170139         4.6297
  31   0.0000       0.188396         5.1265

MULLIKEN ATOMIC CHARGES
-----------------------
   0 O :   -0.525567
   1 H :    0.356746
   2 C :   -0.181778
   3 H :    0.129078
   4 H :    0.085265
   5 H :    0.105473
   6 O :   -0.510605
   7 H :    0.327282
   8 C :   -0.175344
   9 H :    0.119943
  10 H :    0.107692
  11 H :    0.122518
  12 O :   -0.519032
  13 H :    0.342869
  14 C :   -0.187141
  15 H :    0.145746
  16 H :    0.126285
  17 H :    0.130567
Sum of atomic charges:    0.0000000

LOEWDIN ATOMIC CHARGES
----------------------
   0 O :   -0.121953
   1 H :    0.158466
   2 C :   -0.392779
   3 H :    0.108197
   4 H :    0.086784
   5 H :    0.093273
   6 O :   -0.114273
   7 H :    0.192187
   8 C :   -0.384914
   9 H :    0.106700
  10 H :    0.095069
  11 H :    0.095773
  12 O :   -0.074630
  13 H :    0.200931
  14 C :   -0.372409
  15 H :    0.116263
  16 H :    0.102203
  17 H :    0.105112

  Mayer bond orders larger than 0.100000
B(  0-O ,  1-H ) :   0.7930 B(  0-O ,  2-C ) :   0.9402 B(  2-C ,  3-H ) :   0.9422
B(  2-C ,  4-H ) :   0.9372 B(  2-C ,  5-H ) :   0.9392 B(  6-O ,  7-H ) :   0.8383
B(  6-O ,  8-C ) :   0.9225 B(  8-C ,  9-H ) :   0.9385 B(  8-C , 10-H ) :   0.9423
B(  8-C , 11-H ) :   0.9336 B( 12-O , 13-H ) :   0.8264 B( 12-O , 14-C ) :   0.8710
B( 14-C , 15-H ) :   0.9400 B( 14-C , 16-H ) :   0.9335 B( 14-C , 17-H ) :   0.9353

MP2 TOTAL ENERGY:     -346.532125434 Eh
FINAL SINGLE POINT ENERGY      -346.532125433665

DIPOLE MOMENT
-------------
                                X             Y             Z
Electronic contribution:     -1.80545      -2.62386      -1.03663
Nuclear contribution   :      3.18492       3.66156       1.01574
                        -----------------------------------------
Total Dipole Moment    :      1.37946       1.03770      -0.02089
                        -----------------------------------------
Magnitude (a.u.)       :      1.72632
Magnitude (Debye)      :      4.38795

Rotational constants in cm-1:     0.075591     0.037801     0.027079
Rotational constants in MHz :  2266.150870  1133.240068   811.795353

                             ****ORCA TERMINATED NORMALLY****
TOTAL RUN TIME: 0 days 0 hours 1 minutes 20 seconds 589 msec
