                         Program Version 4.2.0 -  RELEASE  -
|  1> # 12mecn.remya.etal.2.mol0,5,11
|  2> ! MP2 def2-TZVP EnGrad TightSCF
|  3>
|  4> %pal
|  5>     nprocs 6
|  6> end
|  7>
|  8> %maxcore 8000
|  9>
| 10> %scf
| 11>     ConvForced true
| 12> end
| 13>
| 14> *xyz 0 1
| 15> C  -0.869520000  -3.929380000   1.700199000
| 16> H  -0.057420000  -3.268850000   2.015352000
| 17> H  -0.697530000  -4.930670000   2.101524000
| 18> H  -1.821490000  -3.546590000   2.077146000
| 19> C  -0.916080000  -3.969960000   0.256749000
| 20> N  -0.955390000  -3.995980000  -0.909290000
| 21> C  -1.955700000   2.515080000   1.698463000
| 22> H  -2.923830000   2.883163000   2.049269000
| 23> H  -1.154850000   3.171830000   2.050990000
| 24> H  -1.790380000   1.506115000   2.087896000
| 25> C  -1.948230000   2.482156000   0.253672000
| 26> N  -1.937550000   2.462523000  -0.913150000
| 27> C   4.214163000   3.378139000   1.593627000
| 28> H   3.242643000   3.657109000   2.012358000
| 29> H   4.969258000   4.086643000   1.941290000
| 30> H   4.482966000   2.372549000   1.931698000
| 31> C   4.130759000   3.388436000   0.150192000
| 32> N   4.050180000   3.381449000  -1.013420000
| 33> *
| 34>
| 35>                          ****END OF INPUT****

CARTESIAN COORDINATES (ANGSTROEM)
---------------------------------
  C     -0.869520   -3.929380    1.700199
  H     -0.057420   -3.268850    2.015352
  H     -0.697530   -4.930670    2.101524
  H     -1.821490   -3.546590    2.077146
  C     -0.916080   -3.969960    0.256749
  N     -0.955390   -3.995980   -0.909290
  C     -1.955700    2.515080    1.698463
  H     -2.923830    2.883163    2.049269
  H     -1.154850    3.171830    2.050990
  H     -1.790380    1.506115    2.087896
  C     -1.948230    2.482156    0.253672
  N     -1.937550    2.462523   -0.913150
  C      4.214163    3.378139    1.593627
  H      3.242643    3.657109    2.012358
  H      4.969258    4.086643    1.941290
  H      4.482966    2.372549    1.931698
  C      4.130759    3.388436    0.150192
  N      4.050180    3.381449   -1.013420

 Total Charge           Charge          ....    0
 Multiplicity           Mult            ....    1
 Number of Electrons    NEL             ....   66
 Basis Dimension        Dim             ....  333

ORBITAL ENERGIES
----------------

  NO   OCC          E(Eh)            E(eV)
   0   2.0000     -15.573620      -423.7798
   1   2.0000     -15.573420      -423.7743
   2   2.0000     -15.573369      -423.7729
   3   2.0000     -11.289160      -307.1937
   4   2.0000     -11.288319      -307.1708
   5   2.0000     -11.287588      -307.1509
   6   2.0000     -11.279778      -306.9384
   7   2.0000     -11.279676      -306.9356
   8   2.0000     -11.279220      -306.9232
   9   2.0000      -1.214666       -33.0527
  10   2.0000      -1.214206       -33.0402
  11   2.0000      -1.213865       -33.0309
  12   2.0000      -1.046737       -28.4832
  13   2.0000      -1.046258       -28.4701
  14   2.0000      -1.046016       -28.4635
  15   2.0000      -0.702723       -19.1221
  16   2.0000      -0.702255       -19.1093
  17   2.0000      -0.701973       -19.1017
  18   2.0000      -0.636394       -17.3172
  19   2.0000      -0.635092       -17.2817
  20   2.0000      -0.634870       -17.2757
  21   2.0000      -0.634640       -17.2694
  22   2.0000      -0.634190       -17.2572
  23   2.0000      -0.633745       -17.2451
  24   2.0000      -0.555471       -15.1151
  25   2.0000      -0.555271       -15.1097
  26   2.0000      -0.554728       -15.0949
  27   2.0000      -0.457863       -12.4591
  28   2.0000      -0.457813       -12.4577
  29   2.0000      -0.457408       -12.4467
  30   2.0000      -0.457399       -12.4465
  31   2.0000      -0.457161       -12.4400
  32   2.0000      -0.457011       -12.4359
  33   0.0000       0.096802         2.6341
  34   0.0000       0.111524         3.0347
  35   0.0000       0.127178         3.4607
  36   0.0000       0.157352         4.2818
  37   0.0000       0.167602         4.5607

MULLIKEN ATOMIC CHARGES
-----------------------
   0 C :   -0.281237
   1 H :    0.168787
   2 H :    0.173115
   3 H :    0.170001
   4 C :   -0.145068
   5 N :   -0.085600
   6 C :   -0.278951
   7 H :    0.173563
   8 H :    0.167153
   9 H :    0.166110
  10 C :   -0.145583
  11 N :   -0.082292
  12 C :   -0.280677
  13 H :    0.165228
  14 H :    0.173313
  15 H :    0.171478
  16 C :   -0.145708
  17 N :   -0.083632
Sum of atomic charges:    0.0000000

LOEWDIN ATOMIC CHARGES
----------------------
   0 C :   -0.285204
   1 H :    0.151329
   2 H :    0.151687
   3 H :    0.151772
   4 C :   -0.220676
   5 N :    0.051090
   6 C :   -0.285873
   7 H :    0.152546
   8 H :    0.150770
   9 H :    0.150305
  10 C :   -0.221503
  11 N :    0.053756
  12 C :   -0.285554
  13 H :    0.150504
  14 H :    0.151128
  15 H :    0.152315
  16 C :   -0.220629
  17 N :    0.052236

  Mayer bond orders larger than 0.100000
B(  0-C ,  1-H ) :   0.9179 B(  0-C ,  2-H ) :   0.9165 B(  0-C ,  3-H ) :   0.9177
B(  0-C ,  4-C ) :   0.9012 B(  4-C ,  5-N ) :   2.8326 B(  6-C ,  7-H ) :   0.9166
B(  6-C ,  8-H ) :   0.9184 B(  6-C ,  9-H ) :   0.9187 B(  6-C , 10-C ) :   0.9012
B( 10-C , 11-N ) :   2.8299 B( 12-C , 13-H ) :   0.9185 B( 12-C , 14-H ) :   0.9167
B( 12-C , 15-H ) :   0.9173 B( 12-C , 16-C ) :   0.9022 B( 16-C , 17-N ) :   2.8317

MP2 TOTAL ENERGY:     -397.446749800 Eh
FINAL SINGLE POINT ENERGY      -397.446749800193

DIPOLE MOMENT
-------------
                                X             Y             Z
Electronic contribution:     -0.26037      -0.13356      -9.46291
Nuclear contribution   :      0.39445       0.19755      13.92224
                        -----------------------------------------
Total Dipole Moment    :      0.13407       0.06399       4.45933
                        -----------------------------------------
Magnitude (a.u.)       :      4.46181
Magnitude (Debye)      :     11.34101

Rotational constants in cm-1:     0.023451     0.009379     0.007669
Rotational constants in MHz :   703.056788   281.189930   229.904641

                             ****ORCA TERMINATED NORMALLY****
TOTAL RUN TIME: 0 days 0 hours 1 minutes 59 seconds 391 msec
