                         Program Version 4.2.0 -  RELEASE  -
|  1> # 12h2o.su.etal.mol0,1,3,8
|  2> ! MP2 def2-TZVP EnGrad TightSCF
|  3>
|  4> %pal
|  5>     nprocs 6
|  6> end
|  7>
|  8> %maxcore 8000
|  9>
| 10> %scf
| 11>     ConvForced true
| 12> end
| 13>
| 14> *xyz 0 1
| 15> O   1.794470000   0.923410000   2.768350000
| 16> H   2.338250000   1.359750000   3.430940000
| 17> H   0.879480000   1.303000000   2.865760000
| 18> O  -1.794470000  -0.923410000   2.768350000
| 19> H  -2.338250000  -1.359750000   3.430940000
| 20> H  -0.879480000  -1.303000000   2.865760000
| 21> O  -1.752130000  -0.741530000  -2.896280000
| 22> H  -2.036450000  -0.920500000  -1.984040000
| 23> H  -0.921210000  -1.242140000  -2.984230000
| 24> O   1.752130000   0.741530000  -2.896280000
| 25> H   2.036450000   0.920500000  -1.984040000
| 26> H   0.921210000   1.242140000  -2.984230000
| 27> *
| 28>
| 29>                          ****END OF INPUT****

CARTESIAN COORDINATES (ANGSTROEM)
---------------------------------
  O      1.794470    0.923410    2.768350
  H      2.338250    1.359750    3.430940
  H      0.879480    1.303000    2.865760
  O     -1.794470   -0.923410    2.768350
  H     -2.338250   -1.359750    3.430940
  H     -0.879480   -1.303000    2.865760
  O     -1.752130   -0.741530   -2.896280
  H     -2.036450   -0.920500   -1.984040
  H     -0.921210   -1.242140   -2.984230
  O      1.752130    0.741530   -2.896280
  H      2.036450    0.920500   -1.984040
  H      0.921210    1.242140   -2.984230

 Total Charge           Charge          ....    0
 Multiplicity           Mult            ....    1
 Number of Electrons    NEL             ....   40
 Basis Dimension        Dim             ....  172

ORBITAL ENERGIES
----------------

  NO   OCC          E(Eh)            E(eV)
   0   2.0000     -20.571460      -559.7779
   1   2.0000     -20.571460      -559.7779
   2   2.0000     -20.555880      -559.3539
   3   2.0000     -20.555879      -559.3539
   4   2.0000      -1.346980       -36.6532
   5   2.0000      -1.346581       -36.6423
   6   2.0000      -1.335463       -36.3398
   7   2.0000      -1.334715       -36.3194
   8   2.0000      -0.716542       -19.4981
   9   2.0000      -0.713500       -19.4153
  10   2.0000      -0.698892       -19.0178
  11   2.0000      -0.696423       -18.9506
  12   2.0000      -0.583584       -15.8801
  13   2.0000      -0.582868       -15.8606
  14   2.0000      -0.573390       -15.6027
  15   2.0000      -0.572812       -15.5870
  16   2.0000      -0.515902       -14.0384
  17   2.0000      -0.513871       -13.9831
  18   2.0000      -0.503256       -13.6943
  19   2.0000      -0.497212       -13.5298
  20   0.0000       0.103951         2.8287
  21   0.0000       0.123889         3.3712
  22   0.0000       0.135526         3.6878
  23   0.0000       0.159798         4.3483
  24   0.0000       0.194241         5.2856

MULLIKEN ATOMIC CHARGES
-----------------------
   0 O :   -0.691134
   1 H :    0.341382
   2 H :    0.349901
   3 O :   -0.691134
   4 H :    0.341382
   5 H :    0.349901
   6 O :   -0.684710
   7 H :    0.339612
   8 H :    0.344947
   9 O :   -0.684710
  10 H :    0.339612
  11 H :    0.344947
Sum of atomic charges:   -0.0000000

LOEWDIN ATOMIC CHARGES
----------------------
   0 O :   -0.341808
   1 H :    0.159198
   2 H :    0.182695
   3 O :   -0.341808
   4 H :    0.159198
   5 H :    0.182695
   6 O :   -0.334067
   7 H :    0.166238
   8 H :    0.167743
   9 O :   -0.334067
  10 H :    0.166238
  11 H :    0.167743

  Mayer bond orders larger than 0.100000
B(  0-O ,  1-H ) :   0.8515 B(  0-O ,  2-H ) :   0.8389 B(  3-O ,  4-H ) :   0.8515
B(  3-O ,  5-H ) :   0.8389 B(  6-O ,  7-H ) :   0.8514 B(  6-O ,  8-H ) :   0.8452
B(  9-O , 10-H ) :   0.8514 B(  9-O , 11-H ) :   0.8452

MP2 TOTAL ENERGY:     -305.257129790 Eh
FINAL SINGLE POINT ENERGY      -305.257129790001

DIPOLE MOMENT
-------------
                                X             Y             Z
Electronic contribution:     -0.00000       0.00000      -0.38882
Nuclear contribution   :     -0.00000      -0.00000       2.63740
                        -----------------------------------------
Total Dipole Moment    :     -0.00000       0.00000       2.24858
                        -----------------------------------------
Magnitude (a.u.)       :      2.24858
Magnitude (Debye)      :      5.71545

Rotational constants in cm-1:     0.060041     0.028939     0.019652
Rotational constants in MHz :  1799.970749   867.567985   589.142684

                             ****ORCA TERMINATED NORMALLY****
TOTAL RUN TIME: 0 days 0 hours 0 minutes 34 seconds 982 msec
