                         Program Version 4.2.0 -  RELEASE  -
|  1> # 12mecn.remya.etal.2.mol1,6
|  2> ! MP2 def2-TZVP EnGrad TightSCF
|  3>
|  4> %pal
|  5>     nprocs 6
|  6> end
|  7>
|  8> %maxcore 8000
|  9>
| 10> %scf
| 11>     ConvForced true
| 12> end
| 13>
| 14> *xyz 0 1
| 15> C  -4.697980000  -0.249690000   1.746215000
| 16> H  -4.927570000   0.755530000   2.111799000
| 17> H  -3.709180000  -0.561560000   2.093253000
| 18> H  -5.432280000  -0.961520000   2.128066000
| 19> C  -4.714100000  -0.247110000   0.301670000
| 20> N  -4.729750000  -0.234960000  -0.865260000
| 21> C   5.300864000  -2.920090000   1.401103000
| 22> H   5.986071000  -2.139770000   1.737487000
| 23> H   5.636642000  -3.888750000   1.778233000
| 24> H   4.307359000  -2.697240000   1.799307000
| 25> C   5.234791000  -2.933140000  -0.043290000
| 26> N   5.170868000  -2.941760000  -1.207750000
| 27> *
| 28>
| 29>                          ****END OF INPUT****

CARTESIAN COORDINATES (ANGSTROEM)
---------------------------------
  C     -4.697980   -0.249690    1.746215
  H     -4.927570    0.755530    2.111799
  H     -3.709180   -0.561560    2.093253
  H     -5.432280   -0.961520    2.128066
  C     -4.714100   -0.247110    0.301670
  N     -4.729750   -0.234960   -0.865260
  C      5.300864   -2.920090    1.401103
  H      5.986071   -2.139770    1.737487
  H      5.636642   -3.888750    1.778233
  H      4.307359   -2.697240    1.799307
  C      5.234791   -2.933140   -0.043290
  N      5.170868   -2.941760   -1.207750

 Total Charge           Charge          ....    0
 Multiplicity           Mult            ....    1
 Number of Electrons    NEL             ....   44
 Basis Dimension        Dim             ....  222

ORBITAL ENERGIES
----------------

  NO   OCC          E(Eh)            E(eV)
   0   2.0000     -15.573504      -423.7766
   1   2.0000     -15.573490      -423.7762
   2   2.0000     -11.285810      -307.1025
   3   2.0000     -11.285636      -307.0978
   4   2.0000     -11.280310      -306.9528
   5   2.0000     -11.280294      -306.9524
   6   2.0000      -1.215019       -33.0623
   7   2.0000      -1.214549       -33.0496
   8   2.0000      -1.044986       -28.4355
   9   2.0000      -1.044551       -28.4237
  10   2.0000      -0.701883       -19.0992
  11   2.0000      -0.700854       -19.0712
  12   2.0000      -0.635030       -17.2800
  13   2.0000      -0.633606       -17.2413
  14   2.0000      -0.630924       -17.1683
  15   2.0000      -0.630883       -17.1672
  16   2.0000      -0.556163       -15.1340
  17   2.0000      -0.555932       -15.1277
  18   2.0000      -0.458407       -12.4739
  19   2.0000      -0.457929       -12.4609
  20   2.0000      -0.457823       -12.4580
  21   2.0000      -0.457418       -12.4470
  22   0.0000       0.118112         3.2140
  23   0.0000       0.118160         3.2153
  24   0.0000       0.170415         4.6372
  25   0.0000       0.170637         4.6433
  26   0.0000       0.170722         4.6456

MULLIKEN ATOMIC CHARGES
-----------------------
   0 C :   -0.278904
   1 H :    0.172362
   2 H :    0.170747
   3 H :    0.172186
   4 C :   -0.145750
   5 N :   -0.090640
   6 C :   -0.280748
   7 H :    0.172161
   8 H :    0.172456
   9 H :    0.170983
  10 C :   -0.145730
  11 N :   -0.089121
Sum of atomic charges:    0.0000000

LOEWDIN ATOMIC CHARGES
----------------------
   0 C :   -0.284028
   1 H :    0.152949
   2 H :    0.152429
   3 H :    0.151563
   4 C :   -0.220024
   5 N :    0.047110
   6 C :   -0.284154
   7 H :    0.151480
   8 H :    0.151334
   9 H :    0.152671
  10 C :   -0.219078
  11 N :    0.047747

  Mayer bond orders larger than 0.100000
B(  0-C ,  1-H ) :   0.9160 B(  0-C ,  2-H ) :   0.9170 B(  0-C ,  3-H ) :   0.9171
B(  0-C ,  4-C ) :   0.9016 B(  4-C ,  5-N ) :   2.8357 B(  6-C ,  7-H ) :   0.9169
B(  6-C ,  8-H ) :   0.9162 B(  6-C ,  9-H ) :   0.9171 B(  6-C , 10-C ) :   0.9028
B( 10-C , 11-N ) :   2.8361

MP2 TOTAL ENERGY:     -264.965913807 Eh
FINAL SINGLE POINT ENERGY      -264.965913807279

DIPOLE MOMENT
-------------
                                X             Y             Z
Electronic contribution:     -0.17494      -0.02557      -6.24697
Nuclear contribution   :      0.26809       0.02921       9.29473
                        -----------------------------------------
Total Dipole Moment    :      0.09315       0.00364       3.04777
                        -----------------------------------------
Magnitude (a.u.)       :      3.04919
Magnitude (Debye)      :      7.75043

Rotational constants in cm-1:     0.154202     0.007699     0.007354
Rotational constants in MHz :  4622.851849   230.823354   220.466379

                             ****ORCA TERMINATED NORMALLY****
TOTAL RUN TIME: 0 days 0 hours 0 minutes 34 seconds 907 msec
