                         Program Version 4.2.0 -  RELEASE  -
|  1> # 12h2o.su.etal.mol0,1,2,5,7,8,9,10,11
|  2> ! MP2 def2-TZVP EnGrad TightSCF
|  3>
|  4> %pal
|  5>     nprocs 6
|  6> end
|  7>
|  8> %maxcore 8000
|  9>
| 10> %scf
| 11>     ConvForced true
| 12> end
| 13>
| 14> *xyz 0 1
| 15> O   1.794470000   0.923410000   2.768350000
| 16> H   2.338250000   1.359750000   3.430940000
| 17> H   0.879480000   1.303000000   2.865760000
| 18> O  -1.794470000  -0.923410000   2.768350000
| 19> H  -2.338250000  -1.359750000   3.430940000
| 20> H  -0.879480000  -1.303000000   2.865760000
| 21> O   0.923410000  -1.794470000  -2.768350000
| 22> H   1.359750000  -2.338250000  -3.430940000
| 23> H   1.303000000  -0.879480000  -2.865760000
| 24> O   0.885520000  -1.737840000   0.052730000
| 25> H   1.284090000  -0.839590000   0.017130000
| 26> H   1.032320000  -2.090180000  -0.841890000
| 27> O  -1.737840000  -0.885520000  -0.052730000
| 28> H  -2.090180000  -1.032320000   0.841890000
| 29> H  -0.839590000  -1.284090000  -0.017130000
| 30> O   1.752130000   0.741530000  -2.896280000
| 31> H   2.036450000   0.920500000  -1.984040000
| 32> H   0.921210000   1.242140000  -2.984230000
| 33> O   0.741530000  -1.752130000   2.896280000
| 34> H   0.920500000  -2.036450000   1.984040000
| 35> H   1.242140000  -0.921210000   2.984230000
| 36> O  -0.923410000   1.794470000  -2.768350000
| 37> H  -1.359750000   2.338250000  -3.430940000
| 38> H  -1.303000000   0.879480000  -2.865760000
| 39> O  -0.741530000   1.752130000   2.896280000
| 40> H  -0.920500000   2.036450000   1.984040000
| 41> H  -1.242140000   0.921210000   2.984230000
| 42> *
| 43>
| 44>                          ****END OF INPUT****

CARTESIAN COORDINATES (ANGSTROEM)
---------------------------------
  O      1.794470    0.923410    2.768350
  H      2.338250    1.359750    3.430940
  H      0.879480    1.303000    2.865760
  O     -1.794470   -0.923410    2.768350
  H     -2.338250   -1.359750    3.430940
  H     -0.879480   -1.303000    2.865760
  O      0.923410   -1.794470   -2.768350
  H      1.359750   -2.338250   -3.430940
  H      1.303000   -0.879480   -2.865760
  O      0.885520   -1.737840    0.052730
  H      1.284090   -0.839590    0.017130
  H      1.032320   -2.090180   -0.841890
  O     -1.737840   -0.885520   -0.052730
  H     -2.090180   -1.032320    0.841890
  H     -0.839590   -1.284090   -0.017130
  O      1.752130    0.741530   -2.896280
  H      2.036450    0.920500   -1.984040
  H      0.921210    1.242140   -2.984230
  O      0.741530   -1.752130    2.896280
  H      0.920500   -2.036450    1.984040
  H      1.242140   -0.921210    2.984230
  O     -0.923410    1.794470   -2.768350
  H     -1.359750    2.338250   -3.430940
  H     -1.303000    0.879480   -2.865760
  O     -0.741530    1.752130    2.896280
  H     -0.920500    2.036450    1.984040
  H     -1.242140    0.921210    2.984230

 Total Charge           Charge          ....    0
 Multiplicity           Mult            ....    1
 Number of Electrons    NEL             ....   90
 Basis Dimension        Dim             ....  387

ORBITAL ENERGIES
----------------

  NO   OCC          E(Eh)            E(eV)
   0   2.0000     -20.590400      -560.2933
   1   2.0000     -20.584540      -560.1338
   2   2.0000     -20.576511      -559.9153
   3   2.0000     -20.565997      -559.6292
   4   2.0000     -20.554194      -559.3081
   5   2.0000     -20.552300      -559.2565
   6   2.0000     -20.549253      -559.1736
   7   2.0000     -20.546200      -559.0905
   8   2.0000     -20.497194      -557.7570
   9   2.0000      -1.377580       -37.4859
  10   2.0000      -1.365813       -37.1657
  11   2.0000      -1.363924       -37.1142
  12   2.0000      -1.359965       -37.0065
  13   2.0000      -1.346476       -36.6395
  14   2.0000      -1.334958       -36.3261
  15   2.0000      -1.333533       -36.2873
  16   2.0000      -1.324200       -36.0333
  17   2.0000      -1.281379       -34.8681
  18   2.0000      -0.741398       -20.1745
  19   2.0000      -0.728098       -19.8126
  20   2.0000      -0.727462       -19.7952
  21   2.0000      -0.723178       -19.6787
  22   2.0000      -0.718419       -19.5492
  23   2.0000      -0.716461       -19.4959
  24   2.0000      -0.711785       -19.3686
  25   2.0000      -0.699977       -19.0473
  26   2.0000      -0.665532       -18.1100
  27   2.0000      -0.631181       -17.1753
  28   2.0000      -0.623576       -16.9684
  29   2.0000      -0.607941       -16.5429
  30   2.0000      -0.598060       -16.2741
  31   2.0000      -0.588660       -16.0183
  32   2.0000      -0.579794       -15.7770
  33   2.0000      -0.570388       -15.5210
  34   2.0000      -0.561343       -15.2749
  35   2.0000      -0.538828       -14.6623
  36   2.0000      -0.532378       -14.4867
  37   2.0000      -0.521797       -14.1988
  38   2.0000      -0.508358       -13.8331
  39   2.0000      -0.506590       -13.7850
  40   2.0000      -0.502652       -13.6778
  41   2.0000      -0.499193       -13.5837
  42   2.0000      -0.493257       -13.4222
  43   2.0000      -0.491298       -13.3689
  44   2.0000      -0.448165       -12.1952
  45   0.0000       0.093101         2.5334
  46   0.0000       0.125649         3.4191
  47   0.0000       0.137376         3.7382
  48   0.0000       0.152206         4.1417
  49   0.0000       0.159761         4.3473

MULLIKEN ATOMIC CHARGES
-----------------------
   0 O :   -0.748655
   1 H :    0.342264
   2 H :    0.379724
   3 O :   -0.755016
   4 H :    0.345924
   5 H :    0.382855
   6 O :   -0.738814
   7 H :    0.340161
   8 H :    0.369692
   9 O :   -0.725622
  10 H :    0.341987
  11 H :    0.390952
  12 O :   -0.744096
  13 H :    0.357445
  14 H :    0.349264
  15 O :   -0.698816
  16 H :    0.348431
  17 H :    0.380940
  18 O :   -0.726410
  19 H :    0.385946
  20 H :    0.368478
  21 O :   -0.706855
  22 H :    0.353061
  23 H :    0.380669
  24 O :   -0.711966
  25 H :    0.358045
  26 H :    0.380412
Sum of atomic charges:    0.0000000

LOEWDIN ATOMIC CHARGES
----------------------
   0 O :   -0.345006
   1 H :    0.156113
   2 H :    0.144941
   3 O :   -0.315879
   4 H :    0.156735
   5 H :    0.146168
   6 O :   -0.339964
   7 H :    0.155570
   8 H :    0.142766
   9 O :   -0.285361
  10 H :    0.169747
  11 H :    0.158048
  12 O :   -0.374553
  13 H :    0.142018
  14 H :    0.136049
  15 O :   -0.279420
  16 H :    0.167476
  17 H :    0.156438
  18 O :   -0.288488
  19 H :    0.155434
  20 H :    0.149548
  21 O :   -0.311492
  22 H :    0.164471
  23 H :    0.195679
  24 O :   -0.284240
  25 H :    0.172601
  26 H :    0.154604

  Mayer bond orders larger than 0.100000
B(  0-O ,  1-H ) :   0.8479 B(  0-O ,  2-H ) :   0.7468 B(  2-H , 24-O ) :   0.1119
B(  3-O ,  4-H ) :   0.8426 B(  3-O ,  5-H ) :   0.7268 B(  5-H , 18-O ) :   0.1228
B(  6-O ,  7-H ) :   0.8490 B(  6-O ,  8-H ) :   0.7568 B(  8-H , 15-O ) :   0.1018
B(  9-O , 10-H ) :   0.8359 B(  9-O , 11-H ) :   0.7807 B( 12-O , 13-H ) :   0.8253
B( 12-O , 14-H ) :   0.8081 B( 15-O , 16-H ) :   0.8433 B( 15-O , 17-H ) :   0.7869
B( 18-O , 19-H ) :   0.8042 B( 18-O , 20-H ) :   0.7929 B( 21-O , 22-H ) :   0.8409
B( 21-O , 23-H ) :   0.8138 B( 24-O , 25-H ) :   0.8357 B( 24-O , 26-H ) :   0.7850

MP2 TOTAL ENERGY:     -686.918776403 Eh
FINAL SINGLE POINT ENERGY      -686.918776403468

DIPOLE MOMENT
-------------
                                X             Y             Z
Electronic contribution:     -0.01461       0.18531      -0.18425
Nuclear contribution   :      0.45337       0.56611      -0.68611
                        -----------------------------------------
Total Dipole Moment    :      0.43876       0.75142      -0.87036
                        -----------------------------------------
Magnitude (a.u.)       :      1.23072
Magnitude (Debye)      :      3.12823

Rotational constants in cm-1:     0.027555     0.013144     0.012476
Rotational constants in MHz :   826.070476   394.033166   374.006788

                             ****ORCA TERMINATED NORMALLY****
TOTAL RUN TIME: 0 days 0 hours 4 minutes 15 seconds 615 msec
