                         Program Version 4.2.0 -  RELEASE  -
|  1> # 12meoh.boyd.etal.mol4,6
|  2> ! MP2 def2-TZVP EnGrad TightSCF
|  3>
|  4> %pal
|  5>     nprocs 6
|  6> end
|  7>
|  8> %maxcore 8000
|  9>
| 10> %scf
| 11>     ConvForced true
| 12> end
| 13>
| 14> *xyz 0 1
| 15> O  -1.358578914   1.232360421   1.189721000
| 16> H  -1.058250183   1.216459361   0.238591307
| 17> C  -0.389763452   1.957872567   1.943072362
| 18> H  -0.747220771   2.012806578   2.975200343
| 19> H  -0.260410585   2.982763209   1.565366540
| 20> H   0.585220638   1.453754179   1.934070793
| 21> O   2.622209273  -1.703002590  -1.445859723
| 22> H   1.828551432  -1.986513781  -0.909754968
| 23> C   2.781117675  -2.615822239  -2.525472890
| 24> H   3.691063626  -2.339003544  -3.065143454
| 25> H   1.934727323  -2.559520367  -3.223226661
| 26> H   2.879948338  -3.653846211  -2.177750170
| 27> *
| 28>
| 29>                          ****END OF INPUT****

CARTESIAN COORDINATES (ANGSTROEM)
---------------------------------
  O     -1.358579    1.232360    1.189721
  H     -1.058250    1.216459    0.238591
  C     -0.389763    1.957873    1.943072
  H     -0.747221    2.012807    2.975200
  H     -0.260411    2.982763    1.565367
  H      0.585221    1.453754    1.934071
  O      2.622209   -1.703003   -1.445860
  H      1.828551   -1.986514   -0.909755
  C      2.781118   -2.615822   -2.525473
  H      3.691064   -2.339004   -3.065143
  H      1.934727   -2.559520   -3.223227
  H      2.879948   -3.653846   -2.177750

 Total Charge           Charge          ....    0
 Multiplicity           Mult            ....    1
 Number of Electrons    NEL             ....   36
 Basis Dimension        Dim             ....  172

ORBITAL ENERGIES
----------------

  NO   OCC          E(Eh)            E(eV)
   0   2.0000     -20.560567      -559.4815
   1   2.0000     -20.557426      -559.3960
   2   2.0000     -11.273817      -306.7762
   3   2.0000     -11.270744      -306.6925
   4   2.0000      -1.348666       -36.6991
   5   2.0000      -1.344938       -36.5976
   6   2.0000      -0.921636       -25.0790
   7   2.0000      -0.918387       -24.9906
   8   2.0000      -0.683463       -18.5980
   9   2.0000      -0.679837       -18.4993
  10   2.0000      -0.619407       -16.8549
  11   2.0000      -0.615994       -16.7621
  12   2.0000      -0.593714       -16.1558
  13   2.0000      -0.589491       -16.0409
  14   2.0000      -0.502303       -13.6684
  15   2.0000      -0.499705       -13.5977
  16   2.0000      -0.451575       -12.2880
  17   2.0000      -0.448831       -12.2133
  18   0.0000       0.117220         3.1897
  19   0.0000       0.147029         4.0009
  20   0.0000       0.175093         4.7645
  21   0.0000       0.178085         4.8459
  22   0.0000       0.226895         6.1741

MULLIKEN ATOMIC CHARGES
-----------------------
   0 O :   -0.500149
   1 H :    0.321948
   2 C :   -0.173761
   3 H :    0.128893
   4 H :    0.110461
   5 H :    0.112588
   6 O :   -0.500685
   7 H :    0.322859
   8 C :   -0.172077
   9 H :    0.129846
  10 H :    0.109050
  11 H :    0.111027
Sum of atomic charges:   -0.0000000

LOEWDIN ATOMIC CHARGES
----------------------
   0 O :   -0.113793
   1 H :    0.191738
   2 C :   -0.380142
   3 H :    0.110121
   4 H :    0.096103
   5 H :    0.095960
   6 O :   -0.112310
   7 H :    0.192835
   8 C :   -0.382130
   9 H :    0.110466
  10 H :    0.095144
  11 H :    0.096008

  Mayer bond orders larger than 0.100000
B(  0-O ,  1-H ) :   0.8417 B(  0-O ,  2-C ) :   0.9237 B(  2-C ,  3-H ) :   0.9373
B(  2-C ,  4-H ) :   0.9391 B(  2-C ,  5-H ) :   0.9388 B(  6-O ,  7-H ) :   0.8405
B(  6-O ,  8-C ) :   0.9247 B(  8-C ,  9-H ) :   0.9373 B(  8-C , 10-H ) :   0.9390
B(  8-C , 11-H ) :   0.9392

MP2 TOTAL ENERGY:     -231.013394691 Eh
FINAL SINGLE POINT ENERGY      -231.013394691259

DIPOLE MOMENT
-------------
                                X             Y             Z
Electronic contribution:     -1.35305       0.28577       0.49499
Nuclear contribution   :      1.52133      -0.54737      -0.88191
                        -----------------------------------------
Total Dipole Moment    :      0.16828      -0.26160      -0.38691
                        -----------------------------------------
Magnitude (a.u.)       :      0.49644
Magnitude (Debye)      :      1.26186

Rotational constants in cm-1:     0.620478     0.026090     0.025352
Rotational constants in MHz : 18601.450863   782.149751   760.024494

                             ****ORCA TERMINATED NORMALLY****
TOTAL RUN TIME: 0 days 0 hours 0 minutes 18 seconds 300 msec
