                         Program Version 4.2.0 -  RELEASE  -
|  1> # 12h2o.su.etal.mol0,1,2,4,8,9,10,11
|  2> ! MP2 def2-TZVP EnGrad TightSCF
|  3>
|  4> %pal
|  5>     nprocs 6
|  6> end
|  7>
|  8> %maxcore 8000
|  9>
| 10> %scf
| 11>     ConvForced true
| 12> end
| 13>
| 14> *xyz 0 1
| 15> O   1.794470000   0.923410000   2.768350000
| 16> H   2.338250000   1.359750000   3.430940000
| 17> H   0.879480000   1.303000000   2.865760000
| 18> O  -1.794470000  -0.923410000   2.768350000
| 19> H  -2.338250000  -1.359750000   3.430940000
| 20> H  -0.879480000  -1.303000000   2.865760000
| 21> O   0.923410000  -1.794470000  -2.768350000
| 22> H   1.359750000  -2.338250000  -3.430940000
| 23> H   1.303000000  -0.879480000  -2.865760000
| 24> O  -0.885520000   1.737840000   0.052730000
| 25> H  -1.032320000   2.090180000  -0.841890000
| 26> H  -1.284090000   0.839590000   0.017130000
| 27> O   1.752130000   0.741530000  -2.896280000
| 28> H   2.036450000   0.920500000  -1.984040000
| 29> H   0.921210000   1.242140000  -2.984230000
| 30> O   0.741530000  -1.752130000   2.896280000
| 31> H   0.920500000  -2.036450000   1.984040000
| 32> H   1.242140000  -0.921210000   2.984230000
| 33> O  -0.923410000   1.794470000  -2.768350000
| 34> H  -1.359750000   2.338250000  -3.430940000
| 35> H  -1.303000000   0.879480000  -2.865760000
| 36> O  -0.741530000   1.752130000   2.896280000
| 37> H  -0.920500000   2.036450000   1.984040000
| 38> H  -1.242140000   0.921210000   2.984230000
| 39> *
| 40>
| 41>                          ****END OF INPUT****

CARTESIAN COORDINATES (ANGSTROEM)
---------------------------------
  O      1.794470    0.923410    2.768350
  H      2.338250    1.359750    3.430940
  H      0.879480    1.303000    2.865760
  O     -1.794470   -0.923410    2.768350
  H     -2.338250   -1.359750    3.430940
  H     -0.879480   -1.303000    2.865760
  O      0.923410   -1.794470   -2.768350
  H      1.359750   -2.338250   -3.430940
  H      1.303000   -0.879480   -2.865760
  O     -0.885520    1.737840    0.052730
  H     -1.032320    2.090180   -0.841890
  H     -1.284090    0.839590    0.017130
  O      1.752130    0.741530   -2.896280
  H      2.036450    0.920500   -1.984040
  H      0.921210    1.242140   -2.984230
  O      0.741530   -1.752130    2.896280
  H      0.920500   -2.036450    1.984040
  H      1.242140   -0.921210    2.984230
  O     -0.923410    1.794470   -2.768350
  H     -1.359750    2.338250   -3.430940
  H     -1.303000    0.879480   -2.865760
  O     -0.741530    1.752130    2.896280
  H     -0.920500    2.036450    1.984040
  H     -1.242140    0.921210    2.984230

 Total Charge           Charge          ....    0
 Multiplicity           Mult            ....    1
 Number of Electrons    NEL             ....   80
 Basis Dimension        Dim             ....  344

ORBITAL ENERGIES
----------------

  NO   OCC          E(Eh)            E(eV)
   0   2.0000     -20.627834      -561.3119
   1   2.0000     -20.574464      -559.8596
   2   2.0000     -20.565677      -559.6205
   3   2.0000     -20.559405      -559.4499
   4   2.0000     -20.540968      -558.9482
   5   2.0000     -20.534625      -558.7756
   6   2.0000     -20.532640      -558.7215
   7   2.0000     -20.522612      -558.4487
   8   2.0000      -1.408222       -38.3197
   9   2.0000      -1.363211       -37.0949
  10   2.0000      -1.352484       -36.8030
  11   2.0000      -1.347770       -36.6747
  12   2.0000      -1.330933       -36.2165
  13   2.0000      -1.322709       -35.9927
  14   2.0000      -1.308854       -35.6157
  15   2.0000      -1.304521       -35.4978
  16   2.0000      -0.773737       -21.0544
  17   2.0000      -0.726338       -19.7647
  18   2.0000      -0.718764       -19.5586
  19   2.0000      -0.711656       -19.3651
  20   2.0000      -0.708026       -19.2664
  21   2.0000      -0.694511       -18.8986
  22   2.0000      -0.692274       -18.8377
  23   2.0000      -0.688826       -18.7439
  24   2.0000      -0.647311       -17.6142
  25   2.0000      -0.613269       -16.6879
  26   2.0000      -0.606874       -16.5139
  27   2.0000      -0.592315       -16.1177
  28   2.0000      -0.574744       -15.6396
  29   2.0000      -0.569760       -15.5040
  30   2.0000      -0.559473       -15.2240
  31   2.0000      -0.549855       -14.9623
  32   2.0000      -0.537445       -14.6246
  33   2.0000      -0.511938       -13.9305
  34   2.0000      -0.506207       -13.7746
  35   2.0000      -0.500391       -13.6163
  36   2.0000      -0.490393       -13.3443
  37   2.0000      -0.483252       -13.1500
  38   2.0000      -0.479746       -13.0545
  39   2.0000      -0.473411       -12.8822
  40   0.0000       0.083988         2.2854
  41   0.0000       0.125903         3.4260
  42   0.0000       0.150079         4.0839
  43   0.0000       0.159282         4.3343
  44   0.0000       0.168467         4.5842

MULLIKEN ATOMIC CHARGES
-----------------------
   0 O :   -0.746179
   1 H :    0.335722
   2 H :    0.384123
   3 O :   -0.745806
   4 H :    0.339732
   5 H :    0.379789
   6 O :   -0.741541
   7 H :    0.327441
   8 H :    0.364844
   9 O :   -0.714261
  10 H :    0.370307
  11 H :    0.345466
  12 O :   -0.701357
  13 H :    0.363068
  14 H :    0.370661
  15 O :   -0.711837
  16 H :    0.355982
  17 H :    0.378113
  18 O :   -0.722751
  19 H :    0.369599
  20 H :    0.378832
  21 O :   -0.727627
  22 H :    0.383150
  23 H :    0.364528
Sum of atomic charges:    0.0000000

LOEWDIN ATOMIC CHARGES
----------------------
   0 O :   -0.343358
   1 H :    0.152922
   2 H :    0.145876
   3 O :   -0.344006
   4 H :    0.154963
   5 H :    0.145142
   6 O :   -0.377683
   7 H :    0.149355
   8 H :    0.140599
   9 O :   -0.324975
  10 H :    0.150862
  11 H :    0.173279
  12 O :   -0.281518
  13 H :    0.175272
  14 H :    0.151469
  15 O :   -0.285755
  16 H :    0.171971
  17 H :    0.154413
  18 O :   -0.287681
  19 H :    0.170661
  20 H :    0.195216
  21 O :   -0.291264
  22 H :    0.155910
  23 H :    0.148330

  Mayer bond orders larger than 0.100000
B(  0-O ,  1-H ) :   0.8511 B(  0-O ,  2-H ) :   0.7394 B(  2-H , 21-O ) :   0.1177
B(  3-O ,  4-H ) :   0.8494 B(  3-O ,  5-H ) :   0.7478 B(  5-H , 15-O ) :   0.1104
B(  6-O ,  7-H ) :   0.8594 B(  6-O ,  8-H ) :   0.7768 B(  9-O , 10-H ) :   0.8149
B(  9-O , 11-H ) :   0.8393 B( 12-O , 13-H ) :   0.8335 B( 12-O , 14-H ) :   0.8087
B( 15-O , 16-H ) :   0.8387 B( 15-O , 17-H ) :   0.7791 B( 18-O , 19-H ) :   0.8290
B( 18-O , 20-H ) :   0.8134 B( 21-O , 22-H ) :   0.8051 B( 21-O , 23-H ) :   0.7957

MP2 TOTAL ENERGY:     -610.584398165 Eh
FINAL SINGLE POINT ENERGY      -610.584398165127

DIPOLE MOMENT
-------------
                                X             Y             Z
Electronic contribution:      0.06192       0.42458      -0.11606
Nuclear contribution   :     -0.90891       0.11126      -1.46039
                        -----------------------------------------
Total Dipole Moment    :     -0.84699       0.53585      -1.57644
                        -----------------------------------------
Magnitude (a.u.)       :      1.86807
Magnitude (Debye)      :      4.74827

Rotational constants in cm-1:     0.031525     0.014003     0.012484
Rotational constants in MHz :   945.092347   419.806151   374.268266

                             ****ORCA TERMINATED NORMALLY****
TOTAL RUN TIME: 0 days 0 hours 2 minutes 39 seconds 928 msec
