                         Program Version 4.2.0 -  RELEASE  -
|  1> # 12h2o.su.etal.mol0,2,3,4,6,7,8,11
|  2> ! MP2 def2-TZVP EnGrad TightSCF
|  3>
|  4> %pal
|  5>     nprocs 6
|  6> end
|  7>
|  8> %maxcore 8000
|  9>
| 10> %scf
| 11>     ConvForced true
| 12> end
| 13>
| 14> *xyz 0 1
| 15> O   1.794470000   0.923410000   2.768350000
| 16> H   2.338250000   1.359750000   3.430940000
| 17> H   0.879480000   1.303000000   2.865760000
| 18> O   0.923410000  -1.794470000  -2.768350000
| 19> H   1.359750000  -2.338250000  -3.430940000
| 20> H   1.303000000  -0.879480000  -2.865760000
| 21> O  -1.752130000  -0.741530000  -2.896280000
| 22> H  -2.036450000  -0.920500000  -1.984040000
| 23> H  -0.921210000  -1.242140000  -2.984230000
| 24> O  -0.885520000   1.737840000   0.052730000
| 25> H  -1.032320000   2.090180000  -0.841890000
| 26> H  -1.284090000   0.839590000   0.017130000
| 27> O   1.737840000   0.885520000  -0.052730000
| 28> H   2.090180000   1.032320000   0.841890000
| 29> H   0.839590000   1.284090000  -0.017130000
| 30> O  -1.737840000  -0.885520000  -0.052730000
| 31> H  -2.090180000  -1.032320000   0.841890000
| 32> H  -0.839590000  -1.284090000  -0.017130000
| 33> O   1.752130000   0.741530000  -2.896280000
| 34> H   2.036450000   0.920500000  -1.984040000
| 35> H   0.921210000   1.242140000  -2.984230000
| 36> O  -0.741530000   1.752130000   2.896280000
| 37> H  -0.920500000   2.036450000   1.984040000
| 38> H  -1.242140000   0.921210000   2.984230000
| 39> *
| 40>
| 41>                          ****END OF INPUT****

CARTESIAN COORDINATES (ANGSTROEM)
---------------------------------
  O      1.794470    0.923410    2.768350
  H      2.338250    1.359750    3.430940
  H      0.879480    1.303000    2.865760
  O      0.923410   -1.794470   -2.768350
  H      1.359750   -2.338250   -3.430940
  H      1.303000   -0.879480   -2.865760
  O     -1.752130   -0.741530   -2.896280
  H     -2.036450   -0.920500   -1.984040
  H     -0.921210   -1.242140   -2.984230
  O     -0.885520    1.737840    0.052730
  H     -1.032320    2.090180   -0.841890
  H     -1.284090    0.839590    0.017130
  O      1.737840    0.885520   -0.052730
  H      2.090180    1.032320    0.841890
  H      0.839590    1.284090   -0.017130
  O     -1.737840   -0.885520   -0.052730
  H     -2.090180   -1.032320    0.841890
  H     -0.839590   -1.284090   -0.017130
  O      1.752130    0.741530   -2.896280
  H      2.036450    0.920500   -1.984040
  H      0.921210    1.242140   -2.984230
  O     -0.741530    1.752130    2.896280
  H     -0.920500    2.036450    1.984040
  H     -1.242140    0.921210    2.984230

 Total Charge           Charge          ....    0
 Multiplicity           Mult            ....    1
 Number of Electrons    NEL             ....   80
 Basis Dimension        Dim             ....  344

ORBITAL ENERGIES
----------------

  NO   OCC          E(Eh)            E(eV)
   0   2.0000     -20.628947      -561.3422
   1   2.0000     -20.600575      -560.5702
   2   2.0000     -20.594930      -560.4165
   3   2.0000     -20.563251      -559.5545
   4   2.0000     -20.546786      -559.1065
   5   2.0000     -20.534491      -558.7719
   6   2.0000     -20.531827      -558.6994
   7   2.0000     -20.517429      -558.3076
   8   2.0000      -1.413455       -38.4621
   9   2.0000      -1.390459       -37.8363
  10   2.0000      -1.379859       -37.5479
  11   2.0000      -1.354101       -36.8470
  12   2.0000      -1.332504       -36.2593
  13   2.0000      -1.318984       -35.8914
  14   2.0000      -1.314821       -35.7781
  15   2.0000      -1.301260       -35.4091
  16   2.0000      -0.768745       -20.9186
  17   2.0000      -0.759189       -20.6586
  18   2.0000      -0.743044       -20.2193
  19   2.0000      -0.716882       -19.5073
  20   2.0000      -0.713693       -19.4206
  21   2.0000      -0.701948       -19.1010
  22   2.0000      -0.697397       -18.9771
  23   2.0000      -0.685589       -18.6558
  24   2.0000      -0.655150       -17.8275
  25   2.0000      -0.634907       -17.2767
  26   2.0000      -0.612730       -16.6732
  27   2.0000      -0.606026       -16.4908
  28   2.0000      -0.588817       -16.0225
  29   2.0000      -0.570329       -15.5194
  30   2.0000      -0.567655       -15.4467
  31   2.0000      -0.555520       -15.1165
  32   2.0000      -0.536663       -14.6033
  33   2.0000      -0.530528       -14.4364
  34   2.0000      -0.526774       -14.3342
  35   2.0000      -0.502161       -13.6645
  36   2.0000      -0.494513       -13.4564
  37   2.0000      -0.484540       -13.1850
  38   2.0000      -0.482031       -13.1167
  39   2.0000      -0.467028       -12.7085
  40   0.0000       0.070091         1.9073
  41   0.0000       0.114543         3.1169
  42   0.0000       0.142507         3.8778
  43   0.0000       0.152742         4.1563
  44   0.0000       0.170108         4.6289

MULLIKEN ATOMIC CHARGES
-----------------------
   0 O :   -0.738743
   1 H :    0.337383
   2 H :    0.370724
   3 O :   -0.745728
   4 H :    0.337438
   5 H :    0.387143
   6 O :   -0.732411
   7 H :    0.356842
   8 H :    0.354808
   9 O :   -0.737739
  10 H :    0.367488
  11 H :    0.369804
  12 O :   -0.749811
  13 H :    0.376783
  14 H :    0.337212
  15 O :   -0.715109
  16 H :    0.358306
  17 H :    0.392432
  18 O :   -0.701339
  19 H :    0.393409
  20 H :    0.338610
  21 O :   -0.686155
  22 H :    0.391537
  23 H :    0.337115
Sum of atomic charges:   -0.0000000

LOEWDIN ATOMIC CHARGES
----------------------
   0 O :   -0.341637
   1 H :    0.153995
   2 H :    0.143522
   3 O :   -0.343394
   4 H :    0.154059
   5 H :    0.146696
   6 O :   -0.355902
   7 H :    0.143878
   8 H :    0.144268
   9 O :   -0.295264
  10 H :    0.174277
  11 H :    0.145795
  12 O :   -0.349595
  13 H :    0.152045
  14 H :    0.133678
  15 O :   -0.272527
  16 H :    0.171811
  17 H :    0.192891
  18 O :   -0.277796
  19 H :    0.160341
  20 H :    0.164484
  21 O :   -0.271323
  22 H :    0.159709
  23 H :    0.165988

  Mayer bond orders larger than 0.100000
B(  0-O ,  1-H ) :   0.8504 B(  0-O ,  2-H ) :   0.7654 B(  3-O ,  4-H ) :   0.8505
B(  3-O ,  5-H ) :   0.7517 B(  6-O ,  7-H ) :   0.8389 B(  6-O ,  8-H ) :   0.8065
B(  9-O , 10-H ) :   0.8291 B(  9-O , 11-H ) :   0.7664 B( 12-O , 13-H ) :   0.8017
B( 12-O , 14-H ) :   0.7971 B( 15-O , 16-H ) :   0.8334 B( 15-O , 17-H ) :   0.8033
B( 18-O , 19-H ) :   0.7859 B( 18-O , 20-H ) :   0.8452 B( 21-O , 22-H ) :   0.7981
B( 21-O , 23-H ) :   0.8486

MP2 TOTAL ENERGY:     -610.584416787 Eh
FINAL SINGLE POINT ENERGY      -610.584416786646

DIPOLE MOMENT
-------------
                                X             Y             Z
Electronic contribution:     -0.12348       0.11156       0.09617
Nuclear contribution   :     -0.64943       0.07877       1.46039
                        -----------------------------------------
Total Dipole Moment    :     -0.77291       0.19033       1.55655
                        -----------------------------------------
Magnitude (a.u.)       :      1.74828
Magnitude (Debye)      :      4.44377

Rotational constants in cm-1:     0.038986     0.018232     0.014873
Rotational constants in MHz :  1168.765699   546.584876   445.872648

                             ****ORCA TERMINATED NORMALLY****
TOTAL RUN TIME: 0 days 0 hours 3 minutes 11 seconds 389 msec
