                         Program Version 3.0.3 - RELEASE   -
|  1> ! wB97X-D3 Def2-TZVP def2-TZVP/J RIJCOSX TightSCF Grid4
|  2>
|  3> %pal nprocs 12 end
|  4>
|  5> %scf
|  6>         maxiter 400
|  7> end
|  8>
|  9> * xyz  0  1
| 10> O  3.481732	1.105224	-2.475533
| 11> H  4.111890	1.665694	-2.963956
| 12> H  2.849339	0.679647	-3.193209
| 13> O  -2.106394	0.819530	-0.501748
| 14> H  -1.459670	1.340932	0.085504
| 15> H  -2.993174	1.019836	-0.082312
| 16> O  -0.153823	0.393689	-2.274783
| 17> H  -1.053244	0.624757	-1.912297
| 18> H  0.487437	0.910981	-1.678149
| 19> O  1.842710	-0.059539	-4.055273
| 20> H  1.999137	-1.004259	-3.768595
| 21> H  0.960569	0.156834	-3.649125
| 22> O  2.357712	-2.429954	-2.809743
| 23> H  3.106453	-2.042308	-2.189055
| 24> H  2.728523	-3.232813	-3.218672
| 25> O  -4.062655	1.135349	1.267820
| 26> H  -3.950295	0.198768	1.720644
| 27> H  -5.022161	1.294644	1.203632
| 28> O  0.131437	-0.372690	2.267061
| 29> H  -0.379185	-0.264683	3.122191
| 30> H  -0.523264	-0.885714	1.679620
| 31> O  -3.568344	-1.101236	2.412828
| 32> H  -2.964559	-0.769405	3.136354
| 33> H  -2.938497	-1.533986	1.774689
| 34> O  -1.775502	0.166386	4.036619
| 35> H  -1.992285	1.122169	3.669744
| 36> H  -1.809274	0.231553	5.008561
| 37> O  1.600893	1.524164	-0.644079
| 38> H  2.372706	1.650095	-1.269556
| 39> H  1.850800	0.669785	-0.152793
| 40> O  -2.314611	2.409117	2.927925
| 41> H  -1.550355	2.536383	2.302563
| 42> H  -3.052544	2.106341	2.325525
| 43> O  -1.590319	-1.525563	0.625881
| 44> H  -1.838761	-0.671438	0.133897
| 45> H  -0.997531	-2.000030	-0.021174
| 46> O  -0.354069	1.967017	1.114302
| 47> H  -0.100420	1.109562	1.598767
| 48> H  0.431764	2.146995	0.528017
| 49> O  4.057115	-1.282888	-1.282250
| 50> H  4.029907	-0.367453	-1.683464
| 51> H  3.554067	-1.171274	-0.430395
| 52> O  2.093512	-0.807578	0.518661
| 53> H  1.620166	-0.732334	1.393665
| 54> H  1.433667	-1.316363	-0.064513
| 55> O  0.355832	-1.938579	-1.133455
| 56> H  0.980685	-2.391513	-1.771138
| 57> H  0.112881	-1.083851	-1.629203
| 58> **                         ****END OF INPUT****

CARTESIAN COORDINATES (ANGSTROEM)
---------------------------------
  O      3.481732    1.105224   -2.475533
  H      4.111890    1.665694   -2.963956
  H      2.849339    0.679647   -3.193209
  O     -2.106394    0.819530   -0.501748
  H     -1.459670    1.340932    0.085504
  H     -2.993174    1.019836   -0.082312
  O     -0.153823    0.393689   -2.274783
  H     -1.053244    0.624757   -1.912297
  H      0.487437    0.910981   -1.678149
  O      1.842710   -0.059539   -4.055273
  H      1.999137   -1.004259   -3.768595
  H      0.960569    0.156834   -3.649125
  O      2.357712   -2.429954   -2.809743
  H      3.106453   -2.042308   -2.189055
  H      2.728523   -3.232813   -3.218672
  O     -4.062655    1.135349    1.267820
  H     -3.950295    0.198768    1.720644
  H     -5.022161    1.294644    1.203632
  O      0.131437   -0.372690    2.267061
  H     -0.379185   -0.264683    3.122191
  H     -0.523264   -0.885714    1.679620
  O     -3.568344   -1.101236    2.412828
  H     -2.964559   -0.769405    3.136354
  H     -2.938497   -1.533986    1.774689
  O     -1.775502    0.166386    4.036619
  H     -1.992285    1.122169    3.669744
  H     -1.809274    0.231553    5.008561
  O      1.600893    1.524164   -0.644079
  H      2.372706    1.650095   -1.269556
  H      1.850800    0.669785   -0.152793
  O     -2.314611    2.409117    2.927925
  H     -1.550355    2.536383    2.302563
  H     -3.052544    2.106341    2.325525
  O     -1.590319   -1.525563    0.625881
  H     -1.838761   -0.671438    0.133897
  H     -0.997531   -2.000030   -0.021174
  O     -0.354069    1.967017    1.114302
  H     -0.100420    1.109562    1.598767
  H      0.431764    2.146995    0.528017
  O      4.057115   -1.282888   -1.282250
  H      4.029907   -0.367453   -1.683464
  H      3.554067   -1.171274   -0.430395
  O      2.093512   -0.807578    0.518661
  H      1.620166   -0.732334    1.393665
  H      1.433667   -1.316363   -0.064513
  O      0.355832   -1.938579   -1.133455
  H      0.980685   -2.391513   -1.771138
  H      0.112881   -1.083851   -1.629203

 Total Charge           Charge          ....    0
 Multiplicity           Mult            ....    1
 Number of Electrons    NEL             ....  160
 Basis Dimension        Dim             ....  688

ORBITAL ENERGIES
----------------

  NO   OCC          E(Eh)            E(eV)
   0   2.0000     -19.251511      -523.8602
   1   2.0000     -19.251311      -523.8548
   2   2.0000     -19.251198      -523.8517
   3   2.0000     -19.251131      -523.8499
   4   2.0000     -19.240123      -523.5504
   5   2.0000     -19.239734      -523.5398
   6   2.0000     -19.239634      -523.5371
   7   2.0000     -19.239385      -523.5303
   8   2.0000     -19.238715      -523.5120
   9   2.0000     -19.238583      -523.5085
  10   2.0000     -19.237913      -523.4902
  11   2.0000     -19.237892      -523.4897
  12   2.0000     -19.235562      -523.4263
  13   2.0000     -19.235527      -523.4253
  14   2.0000     -19.235173      -523.4157
  15   2.0000     -19.235037      -523.4120
  16   2.0000      -1.160644       -31.5827
  17   2.0000      -1.153746       -31.3950
  18   2.0000      -1.143377       -31.1129
  19   2.0000      -1.141197       -31.0535
  20   2.0000      -1.140849       -31.0441
  21   2.0000      -1.132807       -30.8252
  22   2.0000      -1.132723       -30.8229
  23   2.0000      -1.132354       -30.8129
  24   2.0000      -1.120432       -30.4885
  25   2.0000      -1.120300       -30.4849
  26   2.0000      -1.116981       -30.3946
  27   2.0000      -1.111172       -30.2365
  28   2.0000      -1.111083       -30.2341
  29   2.0000      -1.110837       -30.2274
  30   2.0000      -1.101649       -29.9774
  31   2.0000      -1.091265       -29.6948
  32   2.0000      -0.659168       -17.9369
  33   2.0000      -0.657416       -17.8892
  34   2.0000      -0.656703       -17.8698
  35   2.0000      -0.656394       -17.8614
  36   2.0000      -0.653168       -17.7736
  37   2.0000      -0.648052       -17.6344
  38   2.0000      -0.645124       -17.5547
  39   2.0000      -0.644935       -17.5496
  40   2.0000      -0.637101       -17.3364
  41   2.0000      -0.634143       -17.2559
  42   2.0000      -0.628304       -17.0970
  43   2.0000      -0.627835       -17.0843
  44   2.0000      -0.623513       -16.9667
  45   2.0000      -0.622141       -16.9293
  46   2.0000      -0.619407       -16.8549
  47   2.0000      -0.618655       -16.8345
  48   2.0000      -0.589620       -16.0444
  49   2.0000      -0.576248       -15.6805
  50   2.0000      -0.548477       -14.9248
  51   2.0000      -0.547232       -14.8909
  52   2.0000      -0.535864       -14.5816
  53   2.0000      -0.530574       -14.4377
  54   2.0000      -0.529979       -14.4215
  55   2.0000      -0.523597       -14.2478
  56   2.0000      -0.503755       -13.7079
  57   2.0000      -0.503458       -13.6998
  58   2.0000      -0.503139       -13.6911
  59   2.0000      -0.502435       -13.6720
  60   2.0000      -0.480848       -13.0845
  61   2.0000      -0.480094       -13.0640
  62   2.0000      -0.470117       -12.7925
  63   2.0000      -0.448478       -12.2037
  64   2.0000      -0.437092       -11.8939
  65   2.0000      -0.436878       -11.8880
  66   2.0000      -0.434675       -11.8281
  67   2.0000      -0.434361       -11.8196
  68   2.0000      -0.427336       -11.6284
  69   2.0000      -0.427081       -11.6215
  70   2.0000      -0.426817       -11.6143
  71   2.0000      -0.422941       -11.5088
  72   2.0000      -0.422586       -11.4992
  73   2.0000      -0.421970       -11.4824
  74   2.0000      -0.418632       -11.3916
  75   2.0000      -0.418393       -11.3851
  76   2.0000      -0.418170       -11.3790
  77   2.0000      -0.417805       -11.3691
  78   2.0000      -0.415979       -11.3194
  79   2.0000      -0.415888       -11.3169
  80   0.0000       0.079770         2.1707
  81   0.0000       0.095090         2.5875
  82   0.0000       0.117325         3.1926
  83   0.0000       0.117368         3.1937
  84   0.0000       0.132563         3.6072

MULLIKEN ATOMIC CHARGES
-----------------------
   0 O :   -0.772082
   1 H :    0.355952
   2 H :    0.373080
   3 O :   -0.761666
   4 H :    0.359970
   5 H :    0.385494
   6 O :   -0.761376
   7 H :    0.403987
   8 H :    0.353999
   9 O :   -0.690773
  10 H :    0.366288
  11 H :    0.391447
  12 O :   -0.772158
  13 H :    0.373559
  14 H :    0.355931
  15 O :   -0.772304
  16 H :    0.372364
  17 H :    0.356511
  18 O :   -0.762807
  19 H :    0.386523
  20 H :    0.358294
  21 O :   -0.691277
  22 H :    0.366034
  23 H :    0.392404
  24 O :   -0.772293
  25 H :    0.373102
  26 H :    0.356347
  27 O :   -0.762325
  28 H :    0.387045
  29 H :    0.357313
  30 O :   -0.692011
  31 H :    0.391819
  32 H :    0.366412
  33 O :   -0.761872
  34 H :    0.350391
  35 H :    0.405050
  36 O :   -0.761572
  37 H :    0.349891
  38 H :    0.403923
  39 O :   -0.691511
  40 H :    0.365240
  41 H :    0.392147
  42 O :   -0.761581
  43 H :    0.404645
  44 H :    0.351597
  45 O :   -0.762600
  46 H :    0.386415
  47 H :    0.357034
Sum of atomic charges:   -0.0000000

LOEWDIN ATOMIC CHARGES
----------------------
   0 O :   -0.319806
   1 H :    0.163838
   2 H :    0.144653
   3 O :   -0.309846
   4 H :    0.139144
   5 H :    0.149766
   6 O :   -0.301814
   7 H :    0.158817
   8 H :    0.139409
   9 O :   -0.269882
  10 H :    0.147937
  11 H :    0.156886
  12 O :   -0.318990
  13 H :    0.144738
  14 H :    0.163800
  15 O :   -0.318689
  16 H :    0.145023
  17 H :    0.164205
  18 O :   -0.309901
  19 H :    0.149994
  20 H :    0.138846
  21 O :   -0.271223
  22 H :    0.147977
  23 H :    0.155955
  24 O :   -0.319396
  25 H :    0.144894
  26 H :    0.164081
  27 O :   -0.308230
  28 H :    0.150512
  29 H :    0.139476
  30 O :   -0.271412
  31 H :    0.156657
  32 H :    0.147871
  33 O :   -0.300349
  34 H :    0.139210
  35 H :    0.157888
  36 O :   -0.301141
  37 H :    0.139432
  38 H :    0.158807
  39 O :   -0.270746
  40 H :    0.148284
  41 H :    0.156872
  42 O :   -0.303336
  43 H :    0.158713
  44 H :    0.139157
  45 O :   -0.307208
  46 H :    0.149894
  47 H :    0.139230

  Mayer bond orders larger than 0.1
B(  0-O ,  1-H ) :   0.8771 B(  0-O ,  2-H ) :   0.6973 B(  0-O , 28-H ) :   0.1024
B(  2-H ,  9-O ) :   0.2159 B(  3-O ,  4-H ) :   0.7573 B(  3-O ,  5-H ) :   0.7944
B(  3-O , 34-H ) :   0.1628 B(  4-H , 36-O ) :   0.1579 B(  5-H , 15-O ) :   0.1031
B(  6-O ,  7-H ) :   0.7998 B(  6-O ,  8-H ) :   0.7583 B(  6-O , 47-H ) :   0.1627
B(  8-H , 27-O ) :   0.1600 B(  9-O , 10-H ) :   0.8131 B(  9-O , 11-H ) :   0.8158
B( 12-O , 13-H ) :   0.6972 B( 12-O , 14-H ) :   0.8771 B( 12-O , 46-H ) :   0.1035
B( 13-H , 39-O ) :   0.2157 B( 15-O , 16-H ) :   0.6978 B( 15-O , 17-H ) :   0.8767
B( 16-H , 21-O ) :   0.2162 B( 18-O , 19-H ) :   0.7925 B( 18-O , 20-H ) :   0.7554
B( 18-O , 37-H ) :   0.1635 B( 19-H , 24-O ) :   0.1044 B( 20-H , 33-O ) :   0.1612
B( 21-O , 22-H ) :   0.8143 B( 21-O , 23-H ) :   0.8138 B( 24-O , 25-H ) :   0.6979
B( 24-O , 26-H ) :   0.8768 B( 25-H , 30-O ) :   0.2152 B( 27-O , 28-H ) :   0.7935
B( 27-O , 29-H ) :   0.7574 B( 29-H , 42-O ) :   0.1603 B( 30-O , 31-H ) :   0.8142
B( 30-O , 32-H ) :   0.8134 B( 33-O , 34-H ) :   0.7586 B( 33-O , 35-H ) :   0.7965
B( 36-O , 37-H ) :   0.7580 B( 36-O , 38-H ) :   0.7991 B( 39-O , 40-H ) :   0.8133
B( 39-O , 41-H ) :   0.8141 B( 42-O , 43-H ) :   0.7981 B( 42-O , 44-H ) :   0.7597
B( 44-H , 45-O ) :   0.1601 B( 45-O , 46-H ) :   0.7932 B( 45-O , 47-H ) :   0.7551

Dispersion correction           -0.033116315
FINAL SINGLE POINT ENERGY     -1223.300494209424

DIPOLE MOMENT
-------------
                                X             Y             Z
Electronic contribution:      0.00350      -0.00124      -0.01425
Nuclear contribution   :      0.01192      -0.00611       0.01440
                        -----------------------------------------
Total Dipole Moment    :      0.01542      -0.00735       0.00015
                        -----------------------------------------
Magnitude (a.u.)       :      0.01708
Magnitude (Debye)      :      0.04342

                             ****ORCA TERMINATED NORMALLY****
TOTAL RUN TIME: 0 days 0 hours 2 minutes 9 seconds 202 msec
