                         Program Version 3.0.3 - RELEASE   -
|  1> ! wB97X-D3 MA-Def2-TZVP def2-TZVP/J RIJCOSX TightSCF Grid4
|  2>
|  3> %pal nprocs 1 end
|  4>
|  5> %scf
|  6>         maxiter 400
|  7> end
|  8>
|  9> %cosmo
| 10>         SMD true
| 11>         solvent "WATER"
| 12> end
| 13>
| 14> * xyz  0  1
| 15> O  3.477378	1.075883	-2.483664
| 16> H  4.121695	1.646874	-2.946578
| 17> H  2.872092	0.680186	-3.214160
| 18> O  -2.121496	0.837051	-0.480122
| 19> H  -1.463747	1.348456	0.100194
| 20> H  -2.998581	1.013048	-0.017044
| 21> O  -0.162781	0.421939	-2.272704
| 22> H  -1.050020	0.635243	-1.872049
| 23> H  0.495028	0.921053	-1.677919
| 24> O  1.807513	-0.103142	-4.108020
| 25> H  1.996188	-1.027731	-3.765610
| 26> H  0.954551	0.129218	-3.654873
| 27> O  2.364954	-2.402864	-2.805589
| 28> H  3.125835	-2.050715	-2.211056
| 29> H  2.699331	-3.223339	-3.217907
| 30> O  -4.049147	1.127977	1.291489
| 31> H  -3.976654	0.205108	1.738511
| 32> H  -5.005120	1.306092	1.190852
| 33> O  0.111710	-0.376031	2.280052
| 34> H  -0.429651	-0.246760	3.119746
| 35> H  -0.534521	-0.882809	1.680816
| 36> O  -3.565868	-1.159955	2.458555
| 37> H  -2.954638	-0.769771	3.152313
| 38> H  -2.929173	-1.536068	1.794302
| 39> O  -1.794811	0.164993	4.015157
| 40> H  -2.008340	1.116586	3.689692
| 41> H  -1.823778	0.199443	4.991762
| 42> O  1.628449	1.514347	-0.654640
| 43> H  2.390556	1.603206	-1.307047
| 44> H  1.863938	0.660485	-0.158988
| 45> O  -2.344902	2.464788	2.908407
| 46> H  -1.574109	2.543840	2.285737
| 47> H  -3.072628	2.105633	2.318022
| 48> O  -1.597422	-1.527324	0.605039
| 49> H  -1.846953	-0.663998	0.129563
| 50> H  -0.974331	-1.970155	-0.036087
| 51> O  -0.329218	1.973544	1.120899
| 52> H  -0.094381	1.111920	1.607057
| 53> H  0.446871	2.115711	0.511479
| 54> O  4.119701	-1.248580	-1.254673
| 55> H  4.033232	-0.346639	-1.687592
| 56> H  3.568622	-1.150762	-0.433251
| 57> O  2.088955	-0.826484	0.530553
| 58> H  1.586714	-0.726437	1.386673
| 59> H  1.432896	-1.321354	-0.069599
| 60> O  0.368258	-1.932502	-1.153548
| 61> H  1.028916	-2.353815	-1.786600
| 62> H  0.118881	-1.075388	-1.637553
| 63> **                         ****END OF INPUT****

CARTESIAN COORDINATES (ANGSTROEM)
---------------------------------
  O      3.477378    1.075883   -2.483664
  H      4.121695    1.646874   -2.946578
  H      2.872092    0.680186   -3.214160
  O     -2.121496    0.837051   -0.480122
  H     -1.463747    1.348456    0.100194
  H     -2.998581    1.013048   -0.017044
  O     -0.162781    0.421939   -2.272704
  H     -1.050020    0.635243   -1.872049
  H      0.495028    0.921053   -1.677919
  O      1.807513   -0.103142   -4.108020
  H      1.996188   -1.027731   -3.765610
  H      0.954551    0.129218   -3.654873
  O      2.364954   -2.402864   -2.805589
  H      3.125835   -2.050715   -2.211056
  H      2.699331   -3.223339   -3.217907
  O     -4.049147    1.127977    1.291489
  H     -3.976654    0.205108    1.738511
  H     -5.005120    1.306092    1.190852
  O      0.111710   -0.376031    2.280052
  H     -0.429651   -0.246760    3.119746
  H     -0.534521   -0.882809    1.680816
  O     -3.565868   -1.159955    2.458555
  H     -2.954638   -0.769771    3.152313
  H     -2.929173   -1.536068    1.794302
  O     -1.794811    0.164993    4.015157
  H     -2.008340    1.116586    3.689692
  H     -1.823778    0.199443    4.991762
  O      1.628449    1.514347   -0.654640
  H      2.390556    1.603206   -1.307047
  H      1.863938    0.660485   -0.158988
  O     -2.344902    2.464788    2.908407
  H     -1.574109    2.543840    2.285737
  H     -3.072628    2.105633    2.318022
  O     -1.597422   -1.527324    0.605039
  H     -1.846953   -0.663998    0.129563
  H     -0.974331   -1.970155   -0.036087
  O     -0.329218    1.973544    1.120899
  H     -0.094381    1.111920    1.607057
  H      0.446871    2.115711    0.511479
  O      4.119701   -1.248580   -1.254673
  H      4.033232   -0.346639   -1.687592
  H      3.568622   -1.150762   -0.433251
  O      2.088955   -0.826484    0.530553
  H      1.586714   -0.726437    1.386673
  H      1.432896   -1.321354   -0.069599
  O      0.368258   -1.932502   -1.153548
  H      1.028916   -2.353815   -1.786600
  H      0.118881   -1.075388   -1.637553

 Total Charge           Charge          ....    0
 Multiplicity           Mult            ....    1
 Number of Electrons    NEL             ....  160
 Basis Dimension        Dim             ....  752

ORBITAL ENERGIES
----------------

  NO   OCC          E(Eh)            E(eV)
   0   2.0000     -19.242966      -523.6277
   1   2.0000     -19.242841      -523.6243
   2   2.0000     -19.242694      -523.6203
   3   2.0000     -19.242664      -523.6195
   4   2.0000     -19.238455      -523.5050
   5   2.0000     -19.238021      -523.4932
   6   2.0000     -19.237904      -523.4900
   7   2.0000     -19.237598      -523.4817
   8   2.0000     -19.235331      -523.4200
   9   2.0000     -19.235271      -523.4183
  10   2.0000     -19.234907      -523.4084
  11   2.0000     -19.234698      -523.4027
  12   2.0000     -19.234578      -523.3995
  13   2.0000     -19.234498      -523.3973
  14   2.0000     -19.234462      -523.3963
  15   2.0000     -19.234434      -523.3956
  16   2.0000      -1.156211       -31.4621
  17   2.0000      -1.147901       -31.2360
  18   2.0000      -1.137313       -30.9478
  19   2.0000      -1.135654       -30.9027
  20   2.0000      -1.135078       -30.8870
  21   2.0000      -1.128284       -30.7022
  22   2.0000      -1.127792       -30.6888
  23   2.0000      -1.127531       -30.6817
  24   2.0000      -1.116860       -30.3913
  25   2.0000      -1.116650       -30.3856
  26   2.0000      -1.113550       -30.3012
  27   2.0000      -1.107589       -30.1390
  28   2.0000      -1.107401       -30.1339
  29   2.0000      -1.107095       -30.1256
  30   2.0000      -1.097658       -29.8688
  31   2.0000      -1.087747       -29.5991
  32   2.0000      -0.652636       -17.7591
  33   2.0000      -0.651240       -17.7211
  34   2.0000      -0.650442       -17.6994
  35   2.0000      -0.649899       -17.6846
  36   2.0000      -0.644030       -17.5249
  37   2.0000      -0.641010       -17.4428
  38   2.0000      -0.635056       -17.2807
  39   2.0000      -0.634917       -17.2770
  40   2.0000      -0.632244       -17.2042
  41   2.0000      -0.628080       -17.0909
  42   2.0000      -0.622894       -16.9498
  43   2.0000      -0.622642       -16.9429
  44   2.0000      -0.619841       -16.8667
  45   2.0000      -0.618333       -16.8257
  46   2.0000      -0.616881       -16.7862
  47   2.0000      -0.615812       -16.7571
  48   2.0000      -0.584982       -15.9182
  49   2.0000      -0.570284       -15.5182
  50   2.0000      -0.546203       -14.8629
  51   2.0000      -0.544750       -14.8234
  52   2.0000      -0.529080       -14.3970
  53   2.0000      -0.527975       -14.3669
  54   2.0000      -0.527308       -14.3488
  55   2.0000      -0.523175       -14.2363
  56   2.0000      -0.502921       -13.6852
  57   2.0000      -0.499447       -13.5906
  58   2.0000      -0.499083       -13.5807
  59   2.0000      -0.497626       -13.5411
  60   2.0000      -0.477684       -12.9984
  61   2.0000      -0.477004       -12.9799
  62   2.0000      -0.470449       -12.8016
  63   2.0000      -0.450581       -12.2609
  64   2.0000      -0.431511       -11.7420
  65   2.0000      -0.431447       -11.7403
  66   2.0000      -0.429961       -11.6998
  67   2.0000      -0.426796       -11.6137
  68   2.0000      -0.424354       -11.5473
  69   2.0000      -0.424132       -11.5412
  70   2.0000      -0.422311       -11.4917
  71   2.0000      -0.421590       -11.4720
  72   2.0000      -0.421565       -11.4714
  73   2.0000      -0.421120       -11.4593
  74   2.0000      -0.418845       -11.3973
  75   2.0000      -0.418657       -11.3922
  76   2.0000      -0.418255       -11.3813
  77   2.0000      -0.417164       -11.3516
  78   2.0000      -0.416009       -11.3202
  79   2.0000      -0.413891       -11.2626
  80   0.0000       0.062384         1.6975
  81   0.0000       0.074704         2.0328
  82   0.0000       0.093269         2.5380
  83   0.0000       0.093378         2.5409
  84   0.0000       0.102750         2.7960

MULLIKEN ATOMIC CHARGES
-----------------------
   0 O :   -0.870017
   1 H :    0.419484
   2 H :    0.441129
   3 O :   -0.910862
   4 H :    0.446314
   5 H :    0.449194
   6 O :   -0.911730
   7 H :    0.463928
   8 H :    0.449673
   9 O :   -0.824287
  10 H :    0.433196
  11 H :    0.441006
  12 O :   -0.869346
  13 H :    0.442210
  14 H :    0.419560
  15 O :   -0.871402
  16 H :    0.439292
  17 H :    0.419665
  18 O :   -0.907371
  19 H :    0.449989
  20 H :    0.440731
  21 O :   -0.821811
  22 H :    0.432641
  23 H :    0.442499
  24 O :   -0.871215
  25 H :    0.441082
  26 H :    0.419438
  27 O :   -0.933302
  28 H :    0.451425
  29 H :    0.442423
  30 O :   -0.824768
  31 H :    0.442196
  32 H :    0.432895
  33 O :   -0.936600
  34 H :    0.445536
  35 H :    0.465810
  36 O :   -0.935539
  37 H :    0.445045
  38 H :    0.464861
  39 O :   -0.825438
  40 H :    0.431586
  41 H :    0.442839
  42 O :   -0.907613
  43 H :    0.464442
  44 H :    0.443266
  45 O :   -0.935133
  46 H :    0.450982
  47 H :    0.442099
Sum of atomic charges:    0.0000000

LOEWDIN ATOMIC CHARGES
----------------------
   0 O :   -0.388196
   1 H :    0.220626
   2 H :    0.201836
   3 O :   -0.428337
   4 H :    0.197183
   5 H :    0.204080
   6 O :   -0.421589
   7 H :    0.210456
   8 H :    0.198169
   9 O :   -0.404765
  10 H :    0.201558
  11 H :    0.206235
  12 O :   -0.386145
  13 H :    0.201797
  14 H :    0.220691
  15 O :   -0.387347
  16 H :    0.201819
  17 H :    0.220891
  18 O :   -0.428465
  19 H :    0.204786
  20 H :    0.197220
  21 O :   -0.405691
  22 H :    0.201518
  23 H :    0.205267
  24 O :   -0.388212
  25 H :    0.201554
  26 H :    0.220665
  27 O :   -0.426208
  28 H :    0.205208
  29 H :    0.197689
  30 O :   -0.404412
  31 H :    0.206570
  32 H :    0.201846
  33 O :   -0.419881
  34 H :    0.197958
  35 H :    0.209726
  36 O :   -0.420584
  37 H :    0.198496
  38 H :    0.210902
  39 O :   -0.405559
  40 H :    0.201808
  41 H :    0.206253
  42 O :   -0.422924
  43 H :    0.210451
  44 H :    0.197697
  45 O :   -0.424573
  46 H :    0.204392
  47 H :    0.197542

  Mayer bond orders larger than 0.1
B(  0-O ,  1-H ) :   0.8273 B(  0-O ,  2-H ) :   0.7451 B(  3-O ,  4-H ) :   0.7794
B(  3-O ,  5-H ) :   0.7729 B(  6-O ,  7-H ) :   0.7920 B(  6-O ,  8-H ) :   0.7681
B(  9-O , 10-H ) :   0.8016 B(  9-O , 11-H ) :   0.8125 B( 12-O , 13-H ) :   0.7454
B( 12-O , 14-H ) :   0.8271 B( 15-O , 16-H ) :   0.7452 B( 15-O , 17-H ) :   0.8272
B( 18-O , 19-H ) :   0.7719 B( 18-O , 20-H ) :   0.7764 B( 21-O , 22-H ) :   0.8026
B( 21-O , 23-H ) :   0.8104 B( 24-O , 25-H ) :   0.7452 B( 24-O , 26-H ) :   0.8273
B( 27-O , 28-H ) :   0.7738 B( 27-O , 29-H ) :   0.7798 B( 30-O , 31-H ) :   0.8105
B( 30-O , 32-H ) :   0.8026 B( 33-O , 34-H ) :   0.7703 B( 33-O , 35-H ) :   0.7906
B( 36-O , 37-H ) :   0.7714 B( 36-O , 38-H ) :   0.7914 B( 39-O , 40-H ) :   0.8026
B( 39-O , 41-H ) :   0.8104 B( 42-O , 43-H ) :   0.7902 B( 42-O , 44-H ) :   0.7684
B( 45-O , 46-H ) :   0.7728 B( 45-O , 47-H ) :   0.7785

Dispersion correction           -0.033072425
FINAL SINGLE POINT ENERGY     -1223.345992730465

DIPOLE MOMENT
-------------
                                X             Y             Z
Electronic contribution:      0.00839      -0.00844      -0.01424
Nuclear contribution   :     -0.00318      -0.00909       0.00701
                        -----------------------------------------
Total Dipole Moment    :      0.00521      -0.01752      -0.00722
                        -----------------------------------------
Magnitude (a.u.)       :      0.01966
Magnitude (Debye)      :      0.04996

                             ****ORCA TERMINATED NORMALLY****
TOTAL RUN TIME: 0 days 0 hours 30 minutes 34 seconds 952 msec
