                         Program Version 3.0.3 - RELEASE   -
|  1> ! B3LYP Def2-TZVP def2-TZVP/J RIJCOSX TightSCF Grid4 D3BJ
|  2>
|  3> %pal nprocs 12 end
|  4>
|  5> %scf
|  6>         maxiter 400
|  7> end
|  8>
|  9> * xyz  0  1
| 10> O  3.557037	1.159517	-2.553959
| 11> H  4.168122	1.736255	-3.031333
| 12> H  2.963966	0.734875	-3.258050
| 13> O  -2.081329	0.844912	-0.564169
| 14> H  -1.454948	1.344691	0.024348
| 15> H  -2.959478	1.048992	-0.169139
| 16> O  -0.144251	0.348038	-2.407696
| 17> H  -1.032364	0.604327	-2.077402
| 18> H  0.468093	0.862451	-1.817761
| 19> O  1.938364	-0.073544	-4.196108
| 20> H  2.080456	-0.997327	-3.888872
| 21> H  1.052604	0.143665	-3.835204
| 22> O  2.385927	-2.436802	-2.817323
| 23> H  3.076684	-2.021909	-2.198117
| 24> H  2.808036	-3.221447	-3.192269
| 25> O  -4.074453	1.154015	1.239715
| 26> H  -3.977392	0.264661	1.716795
| 27> H  -5.021933	1.344381	1.218908
| 28> O  0.074616	-0.388331	2.358886
| 29> H  -0.392832	-0.292662	3.221176
| 30> H  -0.570741	-0.885864	1.789229
| 31> O  -3.605041	-1.075337	2.489431
| 32> H  -3.030378	-0.797442	3.236504
| 33> H  -2.997389	-1.535398	1.872392
| 34> O  -1.792969	0.140216	4.224976
| 35> H  -1.989034	1.055325	3.834527
| 36> H  -1.844993	0.229736	5.185612
| 37> O  1.612136	1.526034	-0.696436
| 38> H  2.385328	1.668408	-1.286566
| 39> H  1.831805	0.698413	-0.190244
| 40> O  -2.296939	2.366211	2.975247
| 41> H  -1.539356	2.523738	2.372923
| 42> H  -3.025783	2.104371	2.369603
| 43> O  -1.653984	-1.542588	0.623880
| 44> H  -1.867301	-0.713503	0.118059
| 45> H  -1.073354	-2.047560	0.014648
| 46> O  -0.312726	1.981080	1.142634
| 47> H  -0.075216	1.151696	1.635234
| 48> H  0.455254	2.164815	0.560211
| 49> O  4.037511	-1.213720	-1.249477
| 50> H  4.060058	-0.317307	-1.652772
| 51> H  3.545499	-1.095703	-0.408762
| 52> O  2.017549	-0.801537	0.536849
| 53> H  1.573404	-0.739982	1.411681
| 54> H  1.388904	-1.326899	-0.027577
| 55> O  0.304515	-2.014961	-1.183314
| 56> H  0.952630	-2.465411	-1.771997
| 57> H  0.075683	-1.195589	-1.698922
| 58> **                         ****END OF INPUT****

CARTESIAN COORDINATES (ANGSTROEM)
---------------------------------
  O      3.557037    1.159517   -2.553959
  H      4.168122    1.736255   -3.031333
  H      2.963966    0.734875   -3.258050
  O     -2.081329    0.844912   -0.564169
  H     -1.454948    1.344691    0.024348
  H     -2.959478    1.048992   -0.169139
  O     -0.144251    0.348038   -2.407696
  H     -1.032364    0.604327   -2.077402
  H      0.468093    0.862451   -1.817761
  O      1.938364   -0.073544   -4.196108
  H      2.080456   -0.997327   -3.888872
  H      1.052604    0.143665   -3.835204
  O      2.385927   -2.436802   -2.817323
  H      3.076684   -2.021909   -2.198117
  H      2.808036   -3.221447   -3.192269
  O     -4.074453    1.154015    1.239715
  H     -3.977392    0.264661    1.716795
  H     -5.021933    1.344381    1.218908
  O      0.074616   -0.388331    2.358886
  H     -0.392832   -0.292662    3.221176
  H     -0.570741   -0.885864    1.789229
  O     -3.605041   -1.075337    2.489431
  H     -3.030378   -0.797442    3.236504
  H     -2.997389   -1.535398    1.872392
  O     -1.792969    0.140216    4.224976
  H     -1.989034    1.055325    3.834527
  H     -1.844993    0.229736    5.185612
  O      1.612136    1.526034   -0.696436
  H      2.385328    1.668408   -1.286566
  H      1.831805    0.698413   -0.190244
  O     -2.296939    2.366211    2.975247
  H     -1.539356    2.523738    2.372923
  H     -3.025783    2.104371    2.369603
  O     -1.653984   -1.542588    0.623880
  H     -1.867301   -0.713503    0.118059
  H     -1.073354   -2.047560    0.014648
  O     -0.312726    1.981080    1.142634
  H     -0.075216    1.151696    1.635234
  H      0.455254    2.164815    0.560211
  O      4.037511   -1.213720   -1.249477
  H      4.060058   -0.317307   -1.652772
  H      3.545499   -1.095703   -0.408762
  O      2.017549   -0.801537    0.536849
  H      1.573404   -0.739982    1.411681
  H      1.388904   -1.326899   -0.027577
  O      0.304515   -2.014961   -1.183314
  H      0.952630   -2.465411   -1.771997
  H      0.075683   -1.195589   -1.698922

 Total Charge           Charge          ....    0
 Multiplicity           Mult            ....    1
 Number of Electrons    NEL             ....  160
 Basis Dimension        Dim             ....  688

ORBITAL ENERGIES
----------------

  NO   OCC          E(Eh)            E(eV)
   0   2.0000     -19.144159      -520.9390
   1   2.0000     -19.142730      -520.9002
   2   2.0000     -19.142220      -520.8863
   3   2.0000     -19.141748      -520.8734
   4   2.0000     -19.132957      -520.6342
   5   2.0000     -19.130804      -520.5757
   6   2.0000     -19.129771      -520.5475
   7   2.0000     -19.129476      -520.5395
   8   2.0000     -19.128846      -520.5223
   9   2.0000     -19.128304      -520.5076
  10   2.0000     -19.127766      -520.4930
  11   2.0000     -19.127128      -520.4756
  12   2.0000     -19.124794      -520.4121
  13   2.0000     -19.124713      -520.4099
  14   2.0000     -19.123723      -520.3830
  15   2.0000     -19.121725      -520.3286
  16   2.0000      -1.043241       -28.3880
  17   2.0000      -1.037982       -28.2449
  18   2.0000      -1.029506       -28.0143
  19   2.0000      -1.028179       -27.9782
  20   2.0000      -1.027945       -27.9718
  21   2.0000      -1.020693       -27.7745
  22   2.0000      -1.019554       -27.7435
  23   2.0000      -1.019013       -27.7287
  24   2.0000      -1.008969       -27.4555
  25   2.0000      -1.007780       -27.4231
  26   2.0000      -1.006187       -27.3797
  27   2.0000      -1.001915       -27.2635
  28   2.0000      -1.000799       -27.2331
  29   2.0000      -0.999907       -27.2089
  30   2.0000      -0.993192       -27.0261
  31   2.0000      -0.985411       -26.8144
  32   2.0000      -0.559175       -15.2159
  33   2.0000      -0.556005       -15.1297
  34   2.0000      -0.553512       -15.0618
  35   2.0000      -0.552616       -15.0374
  36   2.0000      -0.549314       -14.9476
  37   2.0000      -0.547213       -14.8904
  38   2.0000      -0.543121       -14.7791
  39   2.0000      -0.541369       -14.7314
  40   2.0000      -0.535199       -14.5635
  41   2.0000      -0.533832       -14.5263
  42   2.0000      -0.528764       -14.3884
  43   2.0000      -0.528039       -14.3687
  44   2.0000      -0.524286       -14.2665
  45   2.0000      -0.522922       -14.2294
  46   2.0000      -0.518601       -14.1119
  47   2.0000      -0.518303       -14.1037
  48   2.0000      -0.475403       -12.9364
  49   2.0000      -0.463350       -12.6084
  50   2.0000      -0.442098       -12.0301
  51   2.0000      -0.440738       -11.9931
  52   2.0000      -0.430671       -11.7192
  53   2.0000      -0.425314       -11.5734
  54   2.0000      -0.424564       -11.5530
  55   2.0000      -0.415407       -11.3038
  56   2.0000      -0.404769       -11.0143
  57   2.0000      -0.401481       -10.9248
  58   2.0000      -0.400097       -10.8872
  59   2.0000      -0.396792       -10.7973
  60   2.0000      -0.382306       -10.4031
  61   2.0000      -0.380143       -10.3442
  62   2.0000      -0.370320       -10.0769
  63   2.0000      -0.352702        -9.5975
  64   2.0000      -0.340451        -9.2641
  65   2.0000      -0.339769        -9.2456
  66   2.0000      -0.338861        -9.2209
  67   2.0000      -0.337396        -9.1810
  68   2.0000      -0.331737        -9.0270
  69   2.0000      -0.329742        -8.9727
  70   2.0000      -0.328159        -8.9297
  71   2.0000      -0.326336        -8.8801
  72   2.0000      -0.324867        -8.8401
  73   2.0000      -0.324209        -8.8222
  74   2.0000      -0.323339        -8.7985
  75   2.0000      -0.320588        -8.7236
  76   2.0000      -0.319161        -8.6848
  77   2.0000      -0.318996        -8.6803
  78   2.0000      -0.317901        -8.6505
  79   2.0000      -0.317070        -8.6279
  80   0.0000      -0.000902        -0.0245
  81   0.0000       0.010928         0.2974
  82   0.0000       0.029799         0.8109
  83   0.0000       0.030087         0.8187
  84   0.0000       0.046919         1.2767

MULLIKEN ATOMIC CHARGES
-----------------------
   0 O :   -0.726696
   1 H :    0.333645
   2 H :    0.366564
   3 O :   -0.731874
   4 H :    0.357601
   5 H :    0.365067
   6 O :   -0.726139
   7 H :    0.374756
   8 H :    0.348151
   9 O :   -0.677809
  10 H :    0.352954
  11 H :    0.369482
  12 O :   -0.728088
  13 H :    0.366462
  14 H :    0.332517
  15 O :   -0.727578
  16 H :    0.369242
  17 H :    0.333021
  18 O :   -0.736386
  19 H :    0.367420
  20 H :    0.352504
  21 O :   -0.681534
  22 H :    0.353663
  23 H :    0.372841
  24 O :   -0.727669
  25 H :    0.372958
  26 H :    0.332248
  27 O :   -0.735752
  28 H :    0.363784
  29 H :    0.353999
  30 O :   -0.687422
  31 H :    0.372897
  32 H :    0.351075
  33 O :   -0.734798
  34 H :    0.350463
  35 H :    0.379730
  36 O :   -0.732684
  37 H :    0.351953
  38 H :    0.376026
  39 O :   -0.681073
  40 H :    0.355917
  41 H :    0.373222
  42 O :   -0.734177
  43 H :    0.381684
  44 H :    0.349542
  45 O :   -0.734914
  46 H :    0.363118
  47 H :    0.360089
Sum of atomic charges:   -0.0000000

LOEWDIN ATOMIC CHARGES
----------------------
   0 O :   -0.298009
   1 H :    0.158300
   2 H :    0.140804
   3 O :   -0.293248
   4 H :    0.135341
   5 H :    0.143964
   6 O :   -0.288617
   7 H :    0.152490
   8 H :    0.135502
   9 O :   -0.271837
  10 H :    0.141387
  11 H :    0.151169
  12 O :   -0.297279
  13 H :    0.135551
  14 H :    0.157238
  15 O :   -0.297811
  16 H :    0.137907
  17 H :    0.157645
  18 O :   -0.290849
  19 H :    0.143607
  20 H :    0.134541
  21 O :   -0.267420
  22 H :    0.142345
  23 H :    0.148596
  24 O :   -0.300332
  25 H :    0.139818
  26 H :    0.157569
  27 O :   -0.294805
  28 H :    0.141468
  29 H :    0.129284
  30 O :   -0.272221
  31 H :    0.148117
  32 H :    0.139523
  33 O :   -0.288545
  34 H :    0.134506
  35 H :    0.150439
  36 O :   -0.286510
  37 H :    0.132634
  38 H :    0.149141
  39 O :   -0.264934
  40 H :    0.140229
  41 H :    0.147723
  42 O :   -0.282043
  43 H :    0.150452
  44 H :    0.136031
  45 O :   -0.295849
  46 H :    0.141666
  47 H :    0.135320

  Mayer bond orders larger than 0.1
B(  0-O ,  1-H ) :   0.8896 B(  0-O ,  2-H ) :   0.7311 B(  2-H ,  9-O ) :   0.1852
B(  3-O ,  4-H ) :   0.7812 B(  3-O ,  5-H ) :   0.8214 B(  3-O , 34-H ) :   0.1447
B(  4-H , 36-O ) :   0.1361 B(  6-O ,  7-H ) :   0.8275 B(  6-O ,  8-H ) :   0.7855
B(  6-O , 47-H ) :   0.1381 B(  8-H , 27-O ) :   0.1361 B(  9-O , 10-H ) :   0.8299
B(  9-O , 11-H ) :   0.8362 B( 12-O , 13-H ) :   0.7241 B( 12-O , 14-H ) :   0.8906
B( 12-O , 46-H ) :   0.1003 B( 13-H , 39-O ) :   0.1905 B( 15-O , 16-H ) :   0.7295
B( 15-O , 17-H ) :   0.8902 B( 16-H , 21-O ) :   0.1826 B( 18-O , 19-H ) :   0.8122
B( 18-O , 20-H ) :   0.7810 B( 18-O , 37-H ) :   0.1354 B( 20-H , 33-O ) :   0.1365
B( 21-O , 22-H ) :   0.8307 B( 21-O , 23-H ) :   0.8303 B( 24-O , 25-H ) :   0.7315
B( 24-O , 26-H ) :   0.8901 B( 25-H , 30-O ) :   0.1761 B( 27-O , 28-H ) :   0.8198
B( 27-O , 29-H ) :   0.7735 B( 29-H , 42-O ) :   0.1415 B( 30-O , 31-H ) :   0.8282
B( 30-O , 32-H ) :   0.8273 B( 33-O , 34-H ) :   0.7787 B( 33-O , 35-H ) :   0.8208
B( 36-O , 37-H ) :   0.7813 B( 36-O , 38-H ) :   0.8203 B( 39-O , 40-H ) :   0.8263
B( 39-O , 41-H ) :   0.8285 B( 42-O , 43-H ) :   0.8154 B( 42-O , 44-H ) :   0.7797
B( 44-H , 45-O ) :   0.1422 B( 45-O , 46-H ) :   0.8162 B( 45-O , 47-H ) :   0.7789

Dispersion correction           -0.060919467
FINAL SINGLE POINT ENERGY     -1223.137790442568

DIPOLE MOMENT
-------------
                                X             Y             Z
Electronic contribution:      0.00348      -0.03067      -0.05063
Nuclear contribution   :      0.08499       0.06691       0.19193
                        -----------------------------------------
Total Dipole Moment    :      0.08847       0.03625       0.14130
                        -----------------------------------------
Magnitude (a.u.)       :      0.17061
Magnitude (Debye)      :      0.43365

                             ****ORCA TERMINATED NORMALLY****
TOTAL RUN TIME: 0 days 0 hours 1 minutes 55 seconds 192 msec
