                         Program Version 3.0.3 - RELEASE   -
|  1> ! B3LYP Def2-TZVP def2-TZVP/J RIJCOSX TightSCF Grid4 D3BJ COSMO
|  2>
|  3> %pal nprocs 12 end
|  4>
|  5> %scf
|  6>         maxiter 400
|  7> end
|  8>
|  9> %cosmo
| 10>         SMD true
| 11>         solvent "WATER"
| 12> end
| 13>
| 14> * xyz  0  1
| 15> O  3.695002	1.039201	-2.435157
| 16> H  4.356947	1.614596	-2.848226
| 17> H  3.117410	0.707498	-3.180003
| 18> O  -2.160536	0.866132	-0.559598
| 19> H  -1.531555	1.395595	-0.001900
| 20> H  -3.024265	0.976586	-0.096692
| 21> O  -0.113078	0.547552	-2.410302
| 22> H  -0.997620	0.769582	-2.052066
| 23> H  0.518415	1.001936	-1.791993
| 24> O  2.011228	-0.050071	-4.210977
| 25> H  2.137091	-0.967545	-3.867254
| 26> H  1.152704	0.212872	-3.820761
| 27> O  2.327565	-2.381151	-2.816761
| 28> H  3.065549	-2.082428	-2.204963
| 29> H  2.637767	-3.205744	-3.221340
| 30> O  -4.116836	0.908870	1.325437
| 31> H  -3.989389	0.066130	1.846609
| 32> H  -5.069543	1.088298	1.338801
| 33> O  0.048567	-0.270568	2.280170
| 34> H  -0.404456	-0.127759	3.148789
| 35> H  -0.597816	-0.805465	1.749545
| 36> O  -3.448748	-1.278958	2.723880
| 37> H  -2.871424	-0.827983	3.384283
| 38> H  -2.824883	-1.621466	2.050704
| 39> O  -1.711636	0.271829	4.203346
| 40> H  -1.995123	1.152092	3.818512
| 41> H  -1.676570	0.392042	5.164550
| 42> O  1.714817	1.529640	-0.650358
| 43> H  2.492146	1.605498	-1.253948
| 44> H  1.860957	0.657445	-0.199136
| 45> O  -2.463555	2.437855	2.863367
| 46> H  -1.715930	2.575837	2.246652
| 47> H  -3.154498	2.006016	2.304840
| 48> O  -1.666682	-1.539870	0.597202
| 49> H  -1.900327	-0.703730	0.113216
| 50> H  -1.058329	-1.993737	-0.026096
| 51> O  -0.365015	2.079519	1.062408
| 52> H  -0.133149	1.245156	1.552601
| 53> H  0.413560	2.234545	0.486617
| 54> O  4.107365	-1.357024	-1.168877
| 55> H  4.134793	-0.460357	-1.580687
| 56> H  3.501146	-1.238302	-0.405384
| 57> O  1.923449	-0.926097	0.438021
| 58> H  1.470407	-0.779965	1.298319
| 59> H  1.254031	-1.383783	-0.134325
| 60> O  0.165050	-1.953787	-1.354491
| 61> H  0.889844	-2.343103	-1.906284
| 62> H  -0.004849	-1.083426	-1.800290
| 63> **                         ****END OF INPUT****

CARTESIAN COORDINATES (ANGSTROEM)
---------------------------------
  O      3.695002    1.039201   -2.435157
  H      4.356947    1.614596   -2.848226
  H      3.117410    0.707498   -3.180003
  O     -2.160536    0.866132   -0.559598
  H     -1.531555    1.395595   -0.001900
  H     -3.024265    0.976586   -0.096692
  O     -0.113078    0.547552   -2.410302
  H     -0.997620    0.769582   -2.052066
  H      0.518415    1.001936   -1.791993
  O      2.011228   -0.050071   -4.210977
  H      2.137091   -0.967545   -3.867254
  H      1.152704    0.212872   -3.820761
  O      2.327565   -2.381151   -2.816761
  H      3.065549   -2.082428   -2.204963
  H      2.637767   -3.205744   -3.221340
  O     -4.116836    0.908870    1.325437
  H     -3.989389    0.066130    1.846609
  H     -5.069543    1.088298    1.338801
  O      0.048567   -0.270568    2.280170
  H     -0.404456   -0.127759    3.148789
  H     -0.597816   -0.805465    1.749545
  O     -3.448748   -1.278958    2.723880
  H     -2.871424   -0.827983    3.384283
  H     -2.824883   -1.621466    2.050704
  O     -1.711636    0.271829    4.203346
  H     -1.995123    1.152092    3.818512
  H     -1.676570    0.392042    5.164550
  O      1.714817    1.529640   -0.650358
  H      2.492146    1.605498   -1.253948
  H      1.860957    0.657445   -0.199136
  O     -2.463555    2.437855    2.863367
  H     -1.715930    2.575837    2.246652
  H     -3.154498    2.006016    2.304840
  O     -1.666682   -1.539870    0.597202
  H     -1.900327   -0.703730    0.113216
  H     -1.058329   -1.993737   -0.026096
  O     -0.365015    2.079519    1.062408
  H     -0.133149    1.245156    1.552601
  H      0.413560    2.234545    0.486617
  O      4.107365   -1.357024   -1.168877
  H      4.134793   -0.460357   -1.580687
  H      3.501146   -1.238302   -0.405384
  O      1.923449   -0.926097    0.438021
  H      1.470407   -0.779965    1.298319
  H      1.254031   -1.383783   -0.134325
  O      0.165050   -1.953787   -1.354491
  H      0.889844   -2.343103   -1.906284
  H     -0.004849   -1.083426   -1.800290

 Total Charge           Charge          ....    0
 Multiplicity           Mult            ....    1
 Number of Electrons    NEL             ....  160
 Basis Dimension        Dim             ....  688

ORBITAL ENERGIES
----------------

  NO   OCC          E(Eh)            E(eV)
   0   2.0000     -19.132568      -520.6236
   1   2.0000     -19.131792      -520.6025
   2   2.0000     -19.131735      -520.6010
   3   2.0000     -19.131653      -520.5988
   4   2.0000     -19.128782      -520.5206
   5   2.0000     -19.127907      -520.4968
   6   2.0000     -19.127489      -520.4854
   7   2.0000     -19.126824      -520.4673
   8   2.0000     -19.126403      -520.4559
   9   2.0000     -19.124639      -520.4079
  10   2.0000     -19.123291      -520.3712
  11   2.0000     -19.123192      -520.3685
  12   2.0000     -19.122824      -520.3585
  13   2.0000     -19.122451      -520.3484
  14   2.0000     -19.122096      -520.3387
  15   2.0000     -19.121733      -520.3288
  16   2.0000      -1.037725       -28.2379
  17   2.0000      -1.030757       -28.0483
  18   2.0000      -1.022081       -27.8122
  19   2.0000      -1.020656       -27.7735
  20   2.0000      -1.020119       -27.7589
  21   2.0000      -1.015126       -27.6230
  22   2.0000      -1.013847       -27.5882
  23   2.0000      -1.013776       -27.5862
  24   2.0000      -1.004615       -27.3370
  25   2.0000      -1.004025       -27.3209
  26   2.0000      -1.001852       -27.2618
  27   2.0000      -0.998350       -27.1665
  28   2.0000      -0.996817       -27.1248
  29   2.0000      -0.996254       -27.1095
  30   2.0000      -0.988723       -26.9045
  31   2.0000      -0.981641       -26.7118
  32   2.0000      -0.550602       -14.9826
  33   2.0000      -0.545623       -14.8472
  34   2.0000      -0.544508       -14.8168
  35   2.0000      -0.541437       -14.7332
  36   2.0000      -0.540119       -14.6974
  37   2.0000      -0.538369       -14.6498
  38   2.0000      -0.533907       -14.5283
  39   2.0000      -0.532433       -14.4882
  40   2.0000      -0.530007       -14.4222
  41   2.0000      -0.525884       -14.3100
  42   2.0000      -0.523948       -14.2574
  43   2.0000      -0.523078       -14.2337
  44   2.0000      -0.520762       -14.1707
  45   2.0000      -0.519356       -14.1324
  46   2.0000      -0.517049       -14.0696
  47   2.0000      -0.516035       -14.0420
  48   2.0000      -0.469698       -12.7811
  49   2.0000      -0.456030       -12.4092
  50   2.0000      -0.439751       -11.9662
  51   2.0000      -0.436975       -11.8907
  52   2.0000      -0.422700       -11.5023
  53   2.0000      -0.421659       -11.4739
  54   2.0000      -0.419027       -11.4023
  55   2.0000      -0.413942       -11.2639
  56   2.0000      -0.398137       -10.8339
  57   2.0000      -0.397292       -10.8109
  58   2.0000      -0.396262       -10.7828
  59   2.0000      -0.395266       -10.7557
  60   2.0000      -0.379955       -10.3391
  61   2.0000      -0.376727       -10.2513
  62   2.0000      -0.370853       -10.0914
  63   2.0000      -0.354920        -9.6579
  64   2.0000      -0.333875        -9.0852
  65   2.0000      -0.332529        -9.0486
  66   2.0000      -0.331750        -9.0274
  67   2.0000      -0.328507        -8.9391
  68   2.0000      -0.326313        -8.8794
  69   2.0000      -0.325599        -8.8600
  70   2.0000      -0.325295        -8.8517
  71   2.0000      -0.323144        -8.7932
  72   2.0000      -0.322665        -8.7802
  73   2.0000      -0.321660        -8.7528
  74   2.0000      -0.321398        -8.7457
  75   2.0000      -0.320316        -8.7162
  76   2.0000      -0.320001        -8.7077
  77   2.0000      -0.319465        -8.6931
  78   2.0000      -0.318214        -8.6591
  79   2.0000      -0.315882        -8.5956
  80   0.0000       0.011104         0.3021
  81   0.0000       0.030421         0.8278
  82   0.0000       0.057234         1.5574
  83   0.0000       0.058219         1.5842
  84   0.0000       0.064809         1.7635

MULLIKEN ATOMIC CHARGES
-----------------------
   0 O :   -0.744064
   1 H :    0.385135
   2 H :    0.373152
   3 O :   -0.761419
   4 H :    0.365647
   5 H :    0.381495
   6 O :   -0.754677
   7 H :    0.385020
   8 H :    0.363044
   9 O :   -0.740725
  10 H :    0.371470
  11 H :    0.377918
  12 O :   -0.743338
  13 H :    0.372344
  14 H :    0.385584
  15 O :   -0.744028
  16 H :    0.372598
  17 H :    0.386807
  18 O :   -0.762335
  19 H :    0.384674
  20 H :    0.358720
  21 O :   -0.743847
  22 H :    0.372407
  23 H :    0.381873
  24 O :   -0.746992
  25 H :    0.378933
  26 H :    0.385284
  27 O :   -0.765031
  28 H :    0.377594
  29 H :    0.364820
  30 O :   -0.745322
  31 H :    0.380048
  32 H :    0.368207
  33 O :   -0.759659
  34 H :    0.359890
  35 H :    0.393746
  36 O :   -0.758415
  37 H :    0.366739
  38 H :    0.387317
  39 O :   -0.740453
  40 H :    0.372336
  41 H :    0.384363
  42 O :   -0.757790
  43 H :    0.393144
  44 H :    0.358468
  45 O :   -0.768252
  46 H :    0.380428
  47 H :    0.367143
Sum of atomic charges:    0.0000000

LOEWDIN ATOMIC CHARGES
----------------------
   0 O :   -0.280664
   1 H :    0.184269
   2 H :    0.145729
   3 O :   -0.308941
   4 H :    0.135617
   5 H :    0.147740
   6 O :   -0.301998
   7 H :    0.155123
   8 H :    0.138522
   9 O :   -0.314186
  10 H :    0.143601
  11 H :    0.152815
  12 O :   -0.270444
  13 H :    0.141561
  14 H :    0.183966
  15 O :   -0.278726
  16 H :    0.145507
  17 H :    0.184830
  18 O :   -0.295603
  19 H :    0.145044
  20 H :    0.135747
  21 O :   -0.313654
  22 H :    0.144195
  23 H :    0.148143
  24 O :   -0.280442
  25 H :    0.145522
  26 H :    0.184078
  27 O :   -0.308472
  28 H :    0.145432
  29 H :    0.133923
  30 O :   -0.310816
  31 H :    0.149022
  32 H :    0.140894
  33 O :   -0.299479
  34 H :    0.137134
  35 H :    0.151479
  36 O :   -0.299750
  37 H :    0.134796
  38 H :    0.154054
  39 O :   -0.307869
  40 H :    0.143811
  41 H :    0.147825
  42 O :   -0.286867
  43 H :    0.151666
  44 H :    0.136939
  45 O :   -0.309212
  46 H :    0.140654
  47 H :    0.137484

  Mayer bond orders larger than 0.1
B(  0-O ,  1-H ) :   0.8529 B(  0-O ,  2-H ) :   0.7629 B(  0-O , 28-H ) :   0.1053
B(  0-O , 40-H ) :   0.1034 B(  2-H ,  9-O ) :   0.1406 B(  3-O ,  4-H ) :   0.7771
B(  3-O ,  5-H ) :   0.8070 B(  3-O , 34-H ) :   0.1377 B(  4-H , 36-O ) :   0.1293
B(  6-O ,  7-H ) :   0.8229 B(  6-O ,  8-H ) :   0.7781 B(  6-O , 47-H ) :   0.1275
B(  8-H , 27-O ) :   0.1312 B(  9-O , 10-H ) :   0.8036 B(  9-O , 11-H ) :   0.8348
B( 10-H , 12-O ) :   0.1099 B( 12-O , 13-H ) :   0.7482 B( 12-O , 14-H ) :   0.8524
B( 12-O , 46-H ) :   0.1220 B( 13-H , 39-O ) :   0.1583 B( 15-O , 16-H ) :   0.7633
B( 15-O , 17-H ) :   0.8519 B( 15-O , 32-H ) :   0.1167 B( 16-H , 21-O ) :   0.1409
B( 18-O , 19-H ) :   0.7864 B( 18-O , 20-H ) :   0.7811 B( 18-O , 37-H ) :   0.1352
B( 19-H , 24-O ) :   0.1142 B( 20-H , 33-O ) :   0.1253 B( 21-O , 22-H ) :   0.8072
B( 21-O , 23-H ) :   0.8279 B( 22-H , 24-O ) :   0.1022 B( 24-O , 25-H ) :   0.7583
B( 24-O , 26-H ) :   0.8521 B( 25-H , 30-O ) :   0.1392 B( 27-O , 28-H ) :   0.8003
B( 27-O , 29-H ) :   0.7765 B( 29-H , 42-O ) :   0.1316 B( 30-O , 31-H ) :   0.8271
B( 30-O , 32-H ) :   0.7999 B( 33-O , 34-H ) :   0.7773 B( 33-O , 35-H ) :   0.8113
B( 36-O , 37-H ) :   0.7706 B( 36-O , 38-H ) :   0.8184 B( 39-O , 40-H ) :   0.8069
B( 39-O , 41-H ) :   0.8207 B( 42-O , 43-H ) :   0.8051 B( 42-O , 44-H ) :   0.7772
B( 44-H , 45-O ) :   0.1345 B( 45-O , 46-H ) :   0.7855 B( 45-O , 47-H ) :   0.7829

Dispersion correction           -0.060785966
FINAL SINGLE POINT ENERGY     -1223.175860465258

DIPOLE MOMENT
-------------
                                X             Y             Z
Electronic contribution:      0.08422      -0.04650       0.03270
Nuclear contribution   :      0.13245       0.19210       0.28140
                        -----------------------------------------
Total Dipole Moment    :      0.21667       0.14560       0.31410
                        -----------------------------------------
Magnitude (a.u.)       :      0.40841
Magnitude (Debye)      :      1.03811

                             ****ORCA TERMINATED NORMALLY****
TOTAL RUN TIME: 0 days 0 hours 2 minutes 2 seconds 996 msec
