                         Program Version 3.0.3 - RELEASE   -
|  1> ! B3LYP Def2-TZVP def2-TZVP/J RIJCOSX TightSCF Grid4 D3BJ
|  2>
|  3> %pal nprocs 12 end
|  4>
|  5> %scf
|  6>         maxiter 400
|  7> end
|  8>
|  9> * xyz  0  1
| 10> O  3.481732	1.105224	-2.475533
| 11> H  4.111890	1.665694	-2.963956
| 12> H  2.849339	0.679647	-3.193209
| 13> O  -2.106394	0.819530	-0.501748
| 14> H  -1.459670	1.340932	0.085504
| 15> H  -2.993174	1.019836	-0.082312
| 16> O  -0.153823	0.393689	-2.274783
| 17> H  -1.053244	0.624757	-1.912297
| 18> H  0.487437	0.910981	-1.678149
| 19> O  1.842710	-0.059539	-4.055273
| 20> H  1.999137	-1.004259	-3.768595
| 21> H  0.960569	0.156834	-3.649125
| 22> O  2.357712	-2.429954	-2.809743
| 23> H  3.106453	-2.042308	-2.189055
| 24> H  2.728523	-3.232813	-3.218672
| 25> O  -4.062655	1.135349	1.267820
| 26> H  -3.950295	0.198768	1.720644
| 27> H  -5.022161	1.294644	1.203632
| 28> O  0.131437	-0.372690	2.267061
| 29> H  -0.379185	-0.264683	3.122191
| 30> H  -0.523264	-0.885714	1.679620
| 31> O  -3.568344	-1.101236	2.412828
| 32> H  -2.964559	-0.769405	3.136354
| 33> H  -2.938497	-1.533986	1.774689
| 34> O  -1.775502	0.166386	4.036619
| 35> H  -1.992285	1.122169	3.669744
| 36> H  -1.809274	0.231553	5.008561
| 37> O  1.600893	1.524164	-0.644079
| 38> H  2.372706	1.650095	-1.269556
| 39> H  1.850800	0.669785	-0.152793
| 40> O  -2.314611	2.409117	2.927925
| 41> H  -1.550355	2.536383	2.302563
| 42> H  -3.052544	2.106341	2.325525
| 43> O  -1.590319	-1.525563	0.625881
| 44> H  -1.838761	-0.671438	0.133897
| 45> H  -0.997531	-2.000030	-0.021174
| 46> O  -0.354069	1.967017	1.114302
| 47> H  -0.100420	1.109562	1.598767
| 48> H  0.431764	2.146995	0.528017
| 49> O  4.057115	-1.282888	-1.282250
| 50> H  4.029907	-0.367453	-1.683464
| 51> H  3.554067	-1.171274	-0.430395
| 52> O  2.093512	-0.807578	0.518661
| 53> H  1.620166	-0.732334	1.393665
| 54> H  1.433667	-1.316363	-0.064513
| 55> O  0.355832	-1.938579	-1.133455
| 56> H  0.980685	-2.391513	-1.771138
| 57> H  0.112881	-1.083851	-1.629203
| 58> **                         ****END OF INPUT****

CARTESIAN COORDINATES (ANGSTROEM)
---------------------------------
  O      3.481732    1.105224   -2.475533
  H      4.111890    1.665694   -2.963956
  H      2.849339    0.679647   -3.193209
  O     -2.106394    0.819530   -0.501748
  H     -1.459670    1.340932    0.085504
  H     -2.993174    1.019836   -0.082312
  O     -0.153823    0.393689   -2.274783
  H     -1.053244    0.624757   -1.912297
  H      0.487437    0.910981   -1.678149
  O      1.842710   -0.059539   -4.055273
  H      1.999137   -1.004259   -3.768595
  H      0.960569    0.156834   -3.649125
  O      2.357712   -2.429954   -2.809743
  H      3.106453   -2.042308   -2.189055
  H      2.728523   -3.232813   -3.218672
  O     -4.062655    1.135349    1.267820
  H     -3.950295    0.198768    1.720644
  H     -5.022161    1.294644    1.203632
  O      0.131437   -0.372690    2.267061
  H     -0.379185   -0.264683    3.122191
  H     -0.523264   -0.885714    1.679620
  O     -3.568344   -1.101236    2.412828
  H     -2.964559   -0.769405    3.136354
  H     -2.938497   -1.533986    1.774689
  O     -1.775502    0.166386    4.036619
  H     -1.992285    1.122169    3.669744
  H     -1.809274    0.231553    5.008561
  O      1.600893    1.524164   -0.644079
  H      2.372706    1.650095   -1.269556
  H      1.850800    0.669785   -0.152793
  O     -2.314611    2.409117    2.927925
  H     -1.550355    2.536383    2.302563
  H     -3.052544    2.106341    2.325525
  O     -1.590319   -1.525563    0.625881
  H     -1.838761   -0.671438    0.133897
  H     -0.997531   -2.000030   -0.021174
  O     -0.354069    1.967017    1.114302
  H     -0.100420    1.109562    1.598767
  H      0.431764    2.146995    0.528017
  O      4.057115   -1.282888   -1.282250
  H      4.029907   -0.367453   -1.683464
  H      3.554067   -1.171274   -0.430395
  O      2.093512   -0.807578    0.518661
  H      1.620166   -0.732334    1.393665
  H      1.433667   -1.316363   -0.064513
  O      0.355832   -1.938579   -1.133455
  H      0.980685   -2.391513   -1.771138
  H      0.112881   -1.083851   -1.629203

 Total Charge           Charge          ....    0
 Multiplicity           Mult            ....    1
 Number of Electrons    NEL             ....  160
 Basis Dimension        Dim             ....  688

ORBITAL ENERGIES
----------------

  NO   OCC          E(Eh)            E(eV)
   0   2.0000     -19.143926      -520.9327
   1   2.0000     -19.143796      -520.9292
   2   2.0000     -19.143597      -520.9238
   3   2.0000     -19.143589      -520.9235
   4   2.0000     -19.131543      -520.5958
   5   2.0000     -19.131229      -520.5872
   6   2.0000     -19.131092      -520.5835
   7   2.0000     -19.130866      -520.5773
   8   2.0000     -19.130200      -520.5592
   9   2.0000     -19.130064      -520.5555
  10   2.0000     -19.129417      -520.5379
  11   2.0000     -19.129389      -520.5371
  12   2.0000     -19.127623      -520.4891
  13   2.0000     -19.127609      -520.4887
  14   2.0000     -19.127181      -520.4771
  15   2.0000     -19.127110      -520.4751
  16   2.0000      -1.043522       -28.3957
  17   2.0000      -1.037208       -28.2239
  18   2.0000      -1.027164       -27.9506
  19   2.0000      -1.025012       -27.8920
  20   2.0000      -1.024666       -27.8826
  21   2.0000      -1.016748       -27.6671
  22   2.0000      -1.016581       -27.6626
  23   2.0000      -1.016200       -27.6522
  24   2.0000      -1.004673       -27.3386
  25   2.0000      -1.004557       -27.3354
  26   2.0000      -1.001102       -27.2414
  27   2.0000      -0.995696       -27.0943
  28   2.0000      -0.995561       -27.0906
  29   2.0000      -0.995286       -27.0831
  30   2.0000      -0.986353       -26.8400
  31   2.0000      -0.976024       -26.5590
  32   2.0000      -0.554739       -15.0952
  33   2.0000      -0.552514       -15.0347
  34   2.0000      -0.552027       -15.0214
  35   2.0000      -0.551817       -15.0157
  36   2.0000      -0.548012       -14.9122
  37   2.0000      -0.543204       -14.7813
  38   2.0000      -0.541170       -14.7260
  39   2.0000      -0.540976       -14.7207
  40   2.0000      -0.532226       -14.4826
  41   2.0000      -0.529107       -14.3977
  42   2.0000      -0.524510       -14.2726
  43   2.0000      -0.524134       -14.2624
  44   2.0000      -0.519579       -14.1385
  45   2.0000      -0.518506       -14.1093
  46   2.0000      -0.516055       -14.0426
  47   2.0000      -0.515305       -14.0222
  48   2.0000      -0.483086       -13.1454
  49   2.0000      -0.470748       -12.8097
  50   2.0000      -0.444587       -12.0978
  51   2.0000      -0.443448       -12.0668
  52   2.0000      -0.434053       -11.8112
  53   2.0000      -0.428015       -11.6469
  54   2.0000      -0.427499       -11.6328
  55   2.0000      -0.419881       -11.4256
  56   2.0000      -0.404305       -11.0017
  57   2.0000      -0.402801       -10.9608
  58   2.0000      -0.402348       -10.9484
  59   2.0000      -0.400082       -10.8868
  60   2.0000      -0.381380       -10.3779
  61   2.0000      -0.380675       -10.3587
  62   2.0000      -0.370225       -10.0743
  63   2.0000      -0.350218        -9.5299
  64   2.0000      -0.338615        -9.2142
  65   2.0000      -0.338363        -9.2073
  66   2.0000      -0.336764        -9.1638
  67   2.0000      -0.336060        -9.1447
  68   2.0000      -0.329003        -8.9526
  69   2.0000      -0.328731        -8.9452
  70   2.0000      -0.328463        -8.9379
  71   2.0000      -0.324465        -8.8291
  72   2.0000      -0.324116        -8.8196
  73   2.0000      -0.323593        -8.8054
  74   2.0000      -0.320746        -8.7280
  75   2.0000      -0.320313        -8.7162
  76   2.0000      -0.319956        -8.7064
  77   2.0000      -0.319570        -8.6959
  78   2.0000      -0.317954        -8.6520
  79   2.0000      -0.317598        -8.6423
  80   0.0000      -0.001073        -0.0292
  81   0.0000       0.010262         0.2793
  82   0.0000       0.028993         0.7889
  83   0.0000       0.029052         0.7905
  84   0.0000       0.048455         1.3185

MULLIKEN ATOMIC CHARGES
-----------------------
   0 O :   -0.742238
   1 H :    0.335306
   2 H :    0.368759
   3 O :   -0.747211
   4 H :    0.361367
   5 H :    0.370740
   6 O :   -0.746396
   7 H :    0.387288
   8 H :    0.355200
   9 O :   -0.678907
  10 H :    0.359556
  11 H :    0.380545
  12 O :   -0.742354
  13 H :    0.369184
  14 H :    0.335293
  15 O :   -0.742492
  16 H :    0.368462
  17 H :    0.335745
  18 O :   -0.748813
  19 H :    0.371691
  20 H :    0.360080
  21 O :   -0.679818
  22 H :    0.359236
  23 H :    0.381518
  24 O :   -0.742476
  25 H :    0.369156
  26 H :    0.335548
  27 O :   -0.747497
  28 H :    0.371853
  29 H :    0.359149
  30 O :   -0.680143
  31 H :    0.380446
  32 H :    0.359615
  33 O :   -0.746457
  34 H :    0.351724
  35 H :    0.388005
  36 O :   -0.745830
  37 H :    0.351861
  38 H :    0.386406
  39 O :   -0.679077
  40 H :    0.358234
  41 H :    0.380987
  42 O :   -0.746664
  43 H :    0.387907
  44 H :    0.353109
  45 O :   -0.748058
  46 H :    0.371321
  47 H :    0.359145
Sum of atomic charges:   -0.0000000

LOEWDIN ATOMIC CHARGES
----------------------
   0 O :   -0.314437
   1 H :    0.160514
   2 H :    0.143422
   3 O :   -0.306158
   4 H :    0.138181
   5 H :    0.147287
   6 O :   -0.298265
   7 H :    0.156209
   8 H :    0.138428
   9 O :   -0.268011
  10 H :    0.146679
  11 H :    0.155305
  12 O :   -0.313638
  13 H :    0.143497
  14 H :    0.160477
  15 O :   -0.313308
  16 H :    0.143803
  17 H :    0.160846
  18 O :   -0.306223
  19 H :    0.147541
  20 H :    0.137866
  21 O :   -0.269399
  22 H :    0.146722
  23 H :    0.154344
  24 O :   -0.314026
  25 H :    0.143668
  26 H :    0.160718
  27 O :   -0.304481
  28 H :    0.148034
  29 H :    0.138492
  30 O :   -0.269580
  31 H :    0.155004
  32 H :    0.146602
  33 O :   -0.296726
  34 H :    0.138205
  35 H :    0.155244
  36 O :   -0.297489
  37 H :    0.138459
  38 H :    0.156108
  39 O :   -0.268835
  40 H :    0.146956
  41 H :    0.155245
  42 O :   -0.299791
  43 H :    0.156108
  44 H :    0.138198
  45 O :   -0.303441
  46 H :    0.147403
  47 H :    0.138244

  Mayer bond orders larger than 0.1
B(  0-O ,  1-H ) :   0.8863 B(  0-O ,  2-H ) :   0.6933 B(  0-O , 28-H ) :   0.1112
B(  0-O , 40-H ) :   0.1076 B(  2-H ,  9-O ) :   0.2224 B(  3-O ,  4-H ) :   0.7530
B(  3-O ,  5-H ) :   0.7980 B(  3-O , 34-H ) :   0.1668 B(  4-H , 36-O ) :   0.1611
B(  5-H , 15-O ) :   0.1119 B(  6-O ,  7-H ) :   0.8046 B(  6-O ,  8-H ) :   0.7537
B(  6-O , 47-H ) :   0.1658 B(  8-H , 27-O ) :   0.1638 B(  9-O , 10-H ) :   0.8125
B(  9-O , 11-H ) :   0.8176 B( 10-H , 12-O ) :   0.1066 B( 12-O , 13-H ) :   0.6931
B( 12-O , 14-H ) :   0.8862 B( 12-O , 46-H ) :   0.1124 B( 13-H , 39-O ) :   0.2222
B( 15-O , 16-H ) :   0.6936 B( 15-O , 17-H ) :   0.8859 B( 15-O , 32-H ) :   0.1062
B( 16-H , 21-O ) :   0.2225 B( 18-O , 19-H ) :   0.7964 B( 18-O , 20-H ) :   0.7508
B( 18-O , 37-H ) :   0.1670 B( 19-H , 24-O ) :   0.1129 B( 20-H , 33-O ) :   0.1645
B( 21-O , 22-H ) :   0.8137 B( 21-O , 23-H ) :   0.8154 B( 22-H , 24-O ) :   0.1053
B( 24-O , 25-H ) :   0.6937 B( 24-O , 26-H ) :   0.8860 B( 25-H , 30-O ) :   0.2214
B( 27-O , 28-H ) :   0.7975 B( 27-O , 29-H ) :   0.7529 B( 29-H , 42-O ) :   0.1635
B( 30-O , 31-H ) :   0.8161 B( 30-O , 32-H ) :   0.8128 B( 33-O , 34-H ) :   0.7539
B( 33-O , 35-H ) :   0.8014 B( 36-O , 37-H ) :   0.7532 B( 36-O , 38-H ) :   0.8044
B( 39-O , 40-H ) :   0.8128 B( 39-O , 41-H ) :   0.8160 B( 42-O , 43-H ) :   0.8030
B( 42-O , 44-H ) :   0.7548 B( 44-H , 45-O ) :   0.1640 B( 45-O , 46-H ) :   0.7970
B( 45-O , 47-H ) :   0.7508

Dispersion correction           -0.063347361
FINAL SINGLE POINT ENERGY     -1223.120136551275

DIPOLE MOMENT
-------------
                                X             Y             Z
Electronic contribution:      0.00392      -0.00175      -0.01535
Nuclear contribution   :      0.01192      -0.00611       0.01440
                        -----------------------------------------
Total Dipole Moment    :      0.01584      -0.00786      -0.00095
                        -----------------------------------------
Magnitude (a.u.)       :      0.01771
Magnitude (Debye)      :      0.04502

                             ****ORCA TERMINATED NORMALLY****
TOTAL RUN TIME: 0 days 0 hours 2 minutes 5 seconds 81 msec
