                         Program Version 3.0.3 - RELEASE   -
|  1> ! B3LYP Def2-TZVP def2-TZVP/J RIJCOSX TightSCF Grid4 D3BJ COSMO
|  2>
|  3> %pal nprocs 12 end
|  4>
|  5> %scf
|  6>         maxiter 400
|  7> end
|  8>
|  9> %cosmo
| 10>         SMD true
| 11>         solvent "WATER"
| 12> end
| 13>
| 14> * xyz  0  1
| 15> O  3.477378	1.075883	-2.483664
| 16> H  4.121695	1.646874	-2.946578
| 17> H  2.872092	0.680186	-3.214160
| 18> O  -2.121496	0.837051	-0.480122
| 19> H  -1.463747	1.348456	0.100194
| 20> H  -2.998581	1.013048	-0.017044
| 21> O  -0.162781	0.421939	-2.272704
| 22> H  -1.050020	0.635243	-1.872049
| 23> H  0.495028	0.921053	-1.677919
| 24> O  1.807513	-0.103142	-4.108020
| 25> H  1.996188	-1.027731	-3.765610
| 26> H  0.954551	0.129218	-3.654873
| 27> O  2.364954	-2.402864	-2.805589
| 28> H  3.125835	-2.050715	-2.211056
| 29> H  2.699331	-3.223339	-3.217907
| 30> O  -4.049147	1.127977	1.291489
| 31> H  -3.976654	0.205108	1.738511
| 32> H  -5.005120	1.306092	1.190852
| 33> O  0.111710	-0.376031	2.280052
| 34> H  -0.429651	-0.246760	3.119746
| 35> H  -0.534521	-0.882809	1.680816
| 36> O  -3.565868	-1.159955	2.458555
| 37> H  -2.954638	-0.769771	3.152313
| 38> H  -2.929173	-1.536068	1.794302
| 39> O  -1.794811	0.164993	4.015157
| 40> H  -2.008340	1.116586	3.689692
| 41> H  -1.823778	0.199443	4.991762
| 42> O  1.628449	1.514347	-0.654640
| 43> H  2.390556	1.603206	-1.307047
| 44> H  1.863938	0.660485	-0.158988
| 45> O  -2.344902	2.464788	2.908407
| 46> H  -1.574109	2.543840	2.285737
| 47> H  -3.072628	2.105633	2.318022
| 48> O  -1.597422	-1.527324	0.605039
| 49> H  -1.846953	-0.663998	0.129563
| 50> H  -0.974331	-1.970155	-0.036087
| 51> O  -0.329218	1.973544	1.120899
| 52> H  -0.094381	1.111920	1.607057
| 53> H  0.446871	2.115711	0.511479
| 54> O  4.119701	-1.248580	-1.254673
| 55> H  4.033232	-0.346639	-1.687592
| 56> H  3.568622	-1.150762	-0.433251
| 57> O  2.088955	-0.826484	0.530553
| 58> H  1.586714	-0.726437	1.386673
| 59> H  1.432896	-1.321354	-0.069599
| 60> O  0.368258	-1.932502	-1.153548
| 61> H  1.028916	-2.353815	-1.786600
| 62> H  0.118881	-1.075388	-1.637553
| 63> **                         ****END OF INPUT****

CARTESIAN COORDINATES (ANGSTROEM)
---------------------------------
  O      3.477378    1.075883   -2.483664
  H      4.121695    1.646874   -2.946578
  H      2.872092    0.680186   -3.214160
  O     -2.121496    0.837051   -0.480122
  H     -1.463747    1.348456    0.100194
  H     -2.998581    1.013048   -0.017044
  O     -0.162781    0.421939   -2.272704
  H     -1.050020    0.635243   -1.872049
  H      0.495028    0.921053   -1.677919
  O      1.807513   -0.103142   -4.108020
  H      1.996188   -1.027731   -3.765610
  H      0.954551    0.129218   -3.654873
  O      2.364954   -2.402864   -2.805589
  H      3.125835   -2.050715   -2.211056
  H      2.699331   -3.223339   -3.217907
  O     -4.049147    1.127977    1.291489
  H     -3.976654    0.205108    1.738511
  H     -5.005120    1.306092    1.190852
  O      0.111710   -0.376031    2.280052
  H     -0.429651   -0.246760    3.119746
  H     -0.534521   -0.882809    1.680816
  O     -3.565868   -1.159955    2.458555
  H     -2.954638   -0.769771    3.152313
  H     -2.929173   -1.536068    1.794302
  O     -1.794811    0.164993    4.015157
  H     -2.008340    1.116586    3.689692
  H     -1.823778    0.199443    4.991762
  O      1.628449    1.514347   -0.654640
  H      2.390556    1.603206   -1.307047
  H      1.863938    0.660485   -0.158988
  O     -2.344902    2.464788    2.908407
  H     -1.574109    2.543840    2.285737
  H     -3.072628    2.105633    2.318022
  O     -1.597422   -1.527324    0.605039
  H     -1.846953   -0.663998    0.129563
  H     -0.974331   -1.970155   -0.036087
  O     -0.329218    1.973544    1.120899
  H     -0.094381    1.111920    1.607057
  H      0.446871    2.115711    0.511479
  O      4.119701   -1.248580   -1.254673
  H      4.033232   -0.346639   -1.687592
  H      3.568622   -1.150762   -0.433251
  O      2.088955   -0.826484    0.530553
  H      1.586714   -0.726437    1.386673
  H      1.432896   -1.321354   -0.069599
  O      0.368258   -1.932502   -1.153548
  H      1.028916   -2.353815   -1.786600
  H      0.118881   -1.075388   -1.637553

 Total Charge           Charge          ....    0
 Multiplicity           Mult            ....    1
 Number of Electrons    NEL             ....  160
 Basis Dimension        Dim             ....  688

ORBITAL ENERGIES
----------------

  NO   OCC          E(Eh)            E(eV)
   0   2.0000     -19.133086      -520.6377
   1   2.0000     -19.133021      -520.6360
   2   2.0000     -19.132854      -520.6314
   3   2.0000     -19.132776      -520.6293
   4   2.0000     -19.127593      -520.4883
   5   2.0000     -19.127218      -520.4781
   6   2.0000     -19.127078      -520.4743
   7   2.0000     -19.126803      -520.4668
   8   2.0000     -19.124515      -520.4045
   9   2.0000     -19.124463      -520.4031
  10   2.0000     -19.123987      -520.3901
  11   2.0000     -19.123746      -520.3836
  12   2.0000     -19.123701      -520.3824
  13   2.0000     -19.123675      -520.3817
  14   2.0000     -19.123644      -520.3808
  15   2.0000     -19.123535      -520.3779
  16   2.0000      -1.037142       -28.2221
  17   2.0000      -1.029369       -28.0106
  18   2.0000      -1.019206       -27.7340
  19   2.0000      -1.017424       -27.6855
  20   2.0000      -1.016869       -27.6704
  21   2.0000      -1.010379       -27.4938
  22   2.0000      -1.009858       -27.4796
  23   2.0000      -1.009579       -27.4720
  24   2.0000      -0.999122       -27.1875
  25   2.0000      -0.998896       -27.1813
  26   2.0000      -0.995715       -27.0948
  27   2.0000      -0.990124       -26.9426
  28   2.0000      -0.989939       -26.9376
  29   2.0000      -0.989630       -26.9292
  30   2.0000      -0.980417       -26.6785
  31   2.0000      -0.970607       -26.4115
  32   2.0000      -0.544963       -14.8292
  33   2.0000      -0.544302       -14.8112
  34   2.0000      -0.543431       -14.7875
  35   2.0000      -0.542898       -14.7730
  36   2.0000      -0.538276       -14.6472
  37   2.0000      -0.534631       -14.5481
  38   2.0000      -0.530110       -14.4250
  39   2.0000      -0.529966       -14.4211
  40   2.0000      -0.525536       -14.3006
  41   2.0000      -0.521268       -14.1844
  42   2.0000      -0.517418       -14.0797
  43   2.0000      -0.517239       -14.0748
  44   2.0000      -0.514048       -13.9880
  45   2.0000      -0.512834       -13.9549
  46   2.0000      -0.511450       -13.9173
  47   2.0000      -0.510432       -13.8896
  48   2.0000      -0.476477       -12.9656
  49   2.0000      -0.462707       -12.5909
  50   2.0000      -0.440283       -11.9807
  51   2.0000      -0.438920       -11.9436
  52   2.0000      -0.425122       -11.5682
  53   2.0000      -0.423227       -11.5166
  54   2.0000      -0.422585       -11.4991
  55   2.0000      -0.417565       -11.3625
  56   2.0000      -0.398735       -10.8501
  57   2.0000      -0.396803       -10.7976
  58   2.0000      -0.396490       -10.7890
  59   2.0000      -0.396160       -10.7801
  60   2.0000      -0.376638       -10.2488
  61   2.0000      -0.375969       -10.2306
  62   2.0000      -0.368801       -10.0356
  63   2.0000      -0.350133        -9.5276
  64   2.0000      -0.330828        -9.0023
  65   2.0000      -0.330757        -9.0004
  66   2.0000      -0.329855        -8.9758
  67   2.0000      -0.326594        -8.8871
  68   2.0000      -0.324182        -8.8214
  69   2.0000      -0.323966        -8.8156
  70   2.0000      -0.322195        -8.7674
  71   2.0000      -0.321249        -8.7416
  72   2.0000      -0.321218        -8.7408
  73   2.0000      -0.320685        -8.7263
  74   2.0000      -0.318582        -8.6690
  75   2.0000      -0.318400        -8.6641
  76   2.0000      -0.318104        -8.6561
  77   2.0000      -0.317107        -8.6289
  78   2.0000      -0.316184        -8.6038
  79   2.0000      -0.313712        -8.5365
  80   0.0000       0.013275         0.3612
  81   0.0000       0.031743         0.8638
  82   0.0000       0.058228         1.5845
  83   0.0000       0.058368         1.5883
  84   0.0000       0.067134         1.8268

MULLIKEN ATOMIC CHARGES
-----------------------
   0 O :   -0.753474
   1 H :    0.387945
   2 H :    0.379242
   3 O :   -0.778969
   4 H :    0.370462
   5 H :    0.386664
   6 O :   -0.774122
   7 H :    0.397217
   8 H :    0.369698
   9 O :   -0.746504
  10 H :    0.376489
  11 H :    0.387558
  12 O :   -0.752938
  13 H :    0.379173
  14 H :    0.388099
  15 O :   -0.753504
  16 H :    0.377912
  17 H :    0.388257
  18 O :   -0.780140
  19 H :    0.387361
  20 H :    0.369631
  21 O :   -0.747456
  22 H :    0.375905
  23 H :    0.388933
  24 O :   -0.753556
  25 H :    0.378835
  26 H :    0.387941
  27 O :   -0.778289
  28 H :    0.387383
  29 H :    0.368602
  30 O :   -0.746458
  31 H :    0.388091
  32 H :    0.376485
  33 O :   -0.773341
  34 H :    0.365985
  35 H :    0.398582
  36 O :   -0.772448
  37 H :    0.366241
  38 H :    0.397153
  39 O :   -0.746159
  40 H :    0.374625
  41 H :    0.388212
  42 O :   -0.774476
  43 H :    0.397860
  44 H :    0.367510
  45 O :   -0.777709
  46 H :    0.387166
  47 H :    0.368325
Sum of atomic charges:   -0.0000000

LOEWDIN ATOMIC CHARGES
----------------------
   0 O :   -0.286703
   1 H :    0.188172
   2 H :    0.151082
   3 O :   -0.318766
   4 H :    0.140136
   5 H :    0.149661
   6 O :   -0.310836
   7 H :    0.156660
   8 H :    0.141192
   9 O :   -0.317021
  10 H :    0.148473
  11 H :    0.154456
  12 O :   -0.284588
  13 H :    0.151014
  14 H :    0.188263
  15 O :   -0.285609
  16 H :    0.150948
  17 H :    0.188383
  18 O :   -0.318516
  19 H :    0.150228
  20 H :    0.140156
  21 O :   -0.318124
  22 H :    0.148371
  23 H :    0.153448
  24 O :   -0.286534
  25 H :    0.150707
  26 H :    0.188140
  27 O :   -0.315842
  28 H :    0.150685
  29 H :    0.140574
  30 O :   -0.316624
  31 H :    0.154766
  32 H :    0.148732
  33 O :   -0.308195
  34 H :    0.140844
  35 H :    0.155899
  36 O :   -0.309165
  37 H :    0.141319
  38 H :    0.157178
  39 O :   -0.317770
  40 H :    0.148621
  41 H :    0.154419
  42 O :   -0.312096
  43 H :    0.156565
  44 H :    0.140660
  45 O :   -0.313822
  46 H :    0.149974
  47 H :    0.140483

  Mayer bond orders larger than 0.1
B(  0-O ,  1-H ) :   0.8484 B(  0-O ,  2-H ) :   0.7284 B(  0-O , 28-H ) :   0.1255
B(  0-O , 40-H ) :   0.1212 B(  2-H ,  9-O ) :   0.1723 B(  3-O ,  4-H ) :   0.7528
B(  3-O ,  5-H ) :   0.7718 B(  3-O , 34-H ) :   0.1602 B(  4-H , 36-O ) :   0.1514
B(  5-H , 15-O ) :   0.1275 B(  6-O ,  7-H ) :   0.7967 B(  6-O ,  8-H ) :   0.7468
B(  6-O , 47-H ) :   0.1547 B(  8-H , 27-O ) :   0.1578 B(  9-O , 10-H ) :   0.7884
B(  9-O , 11-H ) :   0.8141 B( 10-H , 12-O ) :   0.1204 B( 12-O , 13-H ) :   0.7281
B( 12-O , 14-H ) :   0.8483 B( 12-O , 46-H ) :   0.1281 B( 13-H , 39-O ) :   0.1728
B( 15-O , 16-H ) :   0.7280 B( 15-O , 17-H ) :   0.8482 B( 15-O , 32-H ) :   0.1191
B( 16-H , 21-O ) :   0.1743 B( 18-O , 19-H ) :   0.7717 B( 18-O , 20-H ) :   0.7501
B( 18-O , 37-H ) :   0.1594 B( 19-H , 24-O ) :   0.1266 B( 20-H , 33-O ) :   0.1551
B( 21-O , 22-H ) :   0.7891 B( 21-O , 23-H ) :   0.8113 B( 22-H , 24-O ) :   0.1203
B( 24-O , 25-H ) :   0.7281 B( 24-O , 26-H ) :   0.8484 B( 25-H , 30-O ) :   0.1730
B( 27-O , 28-H ) :   0.7725 B( 27-O , 29-H ) :   0.7523 B( 29-H , 42-O ) :   0.1539
B( 30-O , 31-H ) :   0.8124 B( 30-O , 32-H ) :   0.7893 B( 33-O , 34-H ) :   0.7479
B( 33-O , 35-H ) :   0.7927 B( 36-O , 37-H ) :   0.7482 B( 36-O , 38-H ) :   0.7960
B( 39-O , 40-H ) :   0.7894 B( 39-O , 41-H ) :   0.8124 B( 42-O , 43-H ) :   0.7947
B( 42-O , 44-H ) :   0.7471 B( 44-H , 45-O ) :   0.1593 B( 45-O , 46-H ) :   0.7708
B( 45-O , 47-H ) :   0.7516

Dispersion correction           -0.063316462
FINAL SINGLE POINT ENERGY     -1223.158735560238

DIPOLE MOMENT
-------------
                                X             Y             Z
Electronic contribution:      0.00924      -0.00863      -0.01442
Nuclear contribution   :     -0.00318      -0.00909       0.00701
                        -----------------------------------------
Total Dipole Moment    :      0.00606      -0.01771      -0.00741
                        -----------------------------------------
Magnitude (a.u.)       :      0.02014
Magnitude (Debye)      :      0.05118

                             ****ORCA TERMINATED NORMALLY****
TOTAL RUN TIME: 0 days 0 hours 2 minutes 6 seconds 93 msec
