                         Program Version 3.0.3 - RELEASE   -
|  1> ! wB97X-D3 Def2-TZVP def2-TZVP/J RIJCOSX TightSCF Grid4 COSMO
|  2>
|  3> %pal nprocs 12 end
|  4>
|  5> %scf
|  6>         maxiter 400
|  7> end
|  8>
|  9> %cosmo
| 10>         SMD true
| 11>         solvent "WATER"
| 12> end
| 13>
| 14> * xyz  0  1
| 15> O  3.695002	1.039201	-2.435157
| 16> H  4.356947	1.614596	-2.848226
| 17> H  3.117410	0.707498	-3.180003
| 18> O  -2.160536	0.866132	-0.559598
| 19> H  -1.531555	1.395595	-0.001900
| 20> H  -3.024265	0.976586	-0.096692
| 21> O  -0.113078	0.547552	-2.410302
| 22> H  -0.997620	0.769582	-2.052066
| 23> H  0.518415	1.001936	-1.791993
| 24> O  2.011228	-0.050071	-4.210977
| 25> H  2.137091	-0.967545	-3.867254
| 26> H  1.152704	0.212872	-3.820761
| 27> O  2.327565	-2.381151	-2.816761
| 28> H  3.065549	-2.082428	-2.204963
| 29> H  2.637767	-3.205744	-3.221340
| 30> O  -4.116836	0.908870	1.325437
| 31> H  -3.989389	0.066130	1.846609
| 32> H  -5.069543	1.088298	1.338801
| 33> O  0.048567	-0.270568	2.280170
| 34> H  -0.404456	-0.127759	3.148789
| 35> H  -0.597816	-0.805465	1.749545
| 36> O  -3.448748	-1.278958	2.723880
| 37> H  -2.871424	-0.827983	3.384283
| 38> H  -2.824883	-1.621466	2.050704
| 39> O  -1.711636	0.271829	4.203346
| 40> H  -1.995123	1.152092	3.818512
| 41> H  -1.676570	0.392042	5.164550
| 42> O  1.714817	1.529640	-0.650358
| 43> H  2.492146	1.605498	-1.253948
| 44> H  1.860957	0.657445	-0.199136
| 45> O  -2.463555	2.437855	2.863367
| 46> H  -1.715930	2.575837	2.246652
| 47> H  -3.154498	2.006016	2.304840
| 48> O  -1.666682	-1.539870	0.597202
| 49> H  -1.900327	-0.703730	0.113216
| 50> H  -1.058329	-1.993737	-0.026096
| 51> O  -0.365015	2.079519	1.062408
| 52> H  -0.133149	1.245156	1.552601
| 53> H  0.413560	2.234545	0.486617
| 54> O  4.107365	-1.357024	-1.168877
| 55> H  4.134793	-0.460357	-1.580687
| 56> H  3.501146	-1.238302	-0.405384
| 57> O  1.923449	-0.926097	0.438021
| 58> H  1.470407	-0.779965	1.298319
| 59> H  1.254031	-1.383783	-0.134325
| 60> O  0.165050	-1.953787	-1.354491
| 61> H  0.889844	-2.343103	-1.906284
| 62> H  -0.004849	-1.083426	-1.800290
| 63> **                         ****END OF INPUT****

CARTESIAN COORDINATES (ANGSTROEM)
---------------------------------
  O      3.695002    1.039201   -2.435157
  H      4.356947    1.614596   -2.848226
  H      3.117410    0.707498   -3.180003
  O     -2.160536    0.866132   -0.559598
  H     -1.531555    1.395595   -0.001900
  H     -3.024265    0.976586   -0.096692
  O     -0.113078    0.547552   -2.410302
  H     -0.997620    0.769582   -2.052066
  H      0.518415    1.001936   -1.791993
  O      2.011228   -0.050071   -4.210977
  H      2.137091   -0.967545   -3.867254
  H      1.152704    0.212872   -3.820761
  O      2.327565   -2.381151   -2.816761
  H      3.065549   -2.082428   -2.204963
  H      2.637767   -3.205744   -3.221340
  O     -4.116836    0.908870    1.325437
  H     -3.989389    0.066130    1.846609
  H     -5.069543    1.088298    1.338801
  O      0.048567   -0.270568    2.280170
  H     -0.404456   -0.127759    3.148789
  H     -0.597816   -0.805465    1.749545
  O     -3.448748   -1.278958    2.723880
  H     -2.871424   -0.827983    3.384283
  H     -2.824883   -1.621466    2.050704
  O     -1.711636    0.271829    4.203346
  H     -1.995123    1.152092    3.818512
  H     -1.676570    0.392042    5.164550
  O      1.714817    1.529640   -0.650358
  H      2.492146    1.605498   -1.253948
  H      1.860957    0.657445   -0.199136
  O     -2.463555    2.437855    2.863367
  H     -1.715930    2.575837    2.246652
  H     -3.154498    2.006016    2.304840
  O     -1.666682   -1.539870    0.597202
  H     -1.900327   -0.703730    0.113216
  H     -1.058329   -1.993737   -0.026096
  O     -0.365015    2.079519    1.062408
  H     -0.133149    1.245156    1.552601
  H      0.413560    2.234545    0.486617
  O      4.107365   -1.357024   -1.168877
  H      4.134793   -0.460357   -1.580687
  H      3.501146   -1.238302   -0.405384
  O      1.923449   -0.926097    0.438021
  H      1.470407   -0.779965    1.298319
  H      1.254031   -1.383783   -0.134325
  O      0.165050   -1.953787   -1.354491
  H      0.889844   -2.343103   -1.906284
  H     -0.004849   -1.083426   -1.800290

 Total Charge           Charge          ....    0
 Multiplicity           Mult            ....    1
 Number of Electrons    NEL             ....  160
 Basis Dimension        Dim             ....  688

ORBITAL ENERGIES
----------------

  NO   OCC          E(Eh)            E(eV)
   0   2.0000     -19.240941      -523.5726
   1   2.0000     -19.240047      -523.5483
   2   2.0000     -19.240037      -523.5480
   3   2.0000     -19.239899      -523.5443
   4   2.0000     -19.238525      -523.5069
   5   2.0000     -19.237518      -523.4795
   6   2.0000     -19.237274      -523.4728
   7   2.0000     -19.236489      -523.4515
   8   2.0000     -19.236127      -523.4416
   9   2.0000     -19.234265      -523.3910
  10   2.0000     -19.232492      -523.3427
  11   2.0000     -19.232232      -523.3356
  12   2.0000     -19.232099      -523.3320
  13   2.0000     -19.232073      -523.3313
  14   2.0000     -19.231017      -523.3026
  15   2.0000     -19.230857      -523.2982
  16   2.0000      -1.155833       -31.4518
  17   2.0000      -1.148183       -31.2437
  18   2.0000      -1.139096       -30.9964
  19   2.0000      -1.137953       -30.9653
  20   2.0000      -1.137404       -30.9503
  21   2.0000      -1.132098       -30.8059
  22   2.0000      -1.130763       -30.7696
  23   2.0000      -1.130676       -30.7672
  24   2.0000      -1.121241       -30.5105
  25   2.0000      -1.120726       -30.4965
  26   2.0000      -1.118783       -30.4436
  27   2.0000      -1.114887       -30.3376
  28   2.0000      -1.113411       -30.2975
  29   2.0000      -1.112676       -30.2774
  30   2.0000      -1.104917       -30.0663
  31   2.0000      -1.097915       -29.8758
  32   2.0000      -0.656784       -17.8720
  33   2.0000      -0.651804       -17.7365
  34   2.0000      -0.650467       -17.7001
  35   2.0000      -0.646823       -17.6010
  36   2.0000      -0.644723       -17.5438
  37   2.0000      -0.643663       -17.5150
  38   2.0000      -0.637865       -17.3572
  39   2.0000      -0.636532       -17.3209
  40   2.0000      -0.635396       -17.2900
  41   2.0000      -0.631140       -17.1742
  42   2.0000      -0.628439       -17.1007
  43   2.0000      -0.627486       -17.0748
  44   2.0000      -0.625274       -17.0146
  45   2.0000      -0.623744       -16.9730
  46   2.0000      -0.621290       -16.9061
  47   2.0000      -0.620101       -16.8738
  48   2.0000      -0.577347       -15.7104
  49   2.0000      -0.562475       -15.3057
  50   2.0000      -0.545088       -14.8326
  51   2.0000      -0.542171       -14.7532
  52   2.0000      -0.526059       -14.3148
  53   2.0000      -0.525464       -14.2986
  54   2.0000      -0.522710       -14.2237
  55   2.0000      -0.518358       -14.1052
  56   2.0000      -0.500278       -13.6133
  57   2.0000      -0.499454       -13.5908
  58   2.0000      -0.498150       -13.5554
  59   2.0000      -0.496947       -13.5226
  60   2.0000      -0.480517       -13.0755
  61   2.0000      -0.477030       -12.9806
  62   2.0000      -0.471566       -12.8320
  63   2.0000      -0.454554       -12.3691
  64   2.0000      -0.434092       -11.8122
  65   2.0000      -0.433016       -11.7830
  66   2.0000      -0.432076       -11.7574
  67   2.0000      -0.428314       -11.6550
  68   2.0000      -0.426097       -11.5947
  69   2.0000      -0.425493       -11.5783
  70   2.0000      -0.425011       -11.5651
  71   2.0000      -0.423144       -11.5143
  72   2.0000      -0.422820       -11.5055
  73   2.0000      -0.421710       -11.4753
  74   2.0000      -0.421220       -11.4620
  75   2.0000      -0.420139       -11.4326
  76   2.0000      -0.419936       -11.4271
  77   2.0000      -0.419286       -11.4094
  78   2.0000      -0.417765       -11.3680
  79   2.0000      -0.415985       -11.3195
  80   0.0000       0.089044         2.4230
  81   0.0000       0.112910         3.0724
  82   0.0000       0.143760         3.9119
  83   0.0000       0.144804         3.9403
  84   0.0000       0.149238         4.0610

MULLIKEN ATOMIC CHARGES
-----------------------
   0 O :   -0.773167
   1 H :    0.406849
   2 H :    0.375695
   3 O :   -0.774546
   4 H :    0.364100
   5 H :    0.395219
   6 O :   -0.768608
   7 H :    0.401263
   8 H :    0.361679
   9 O :   -0.751460
  10 H :    0.377383
  11 H :    0.387455
  12 O :   -0.772392
  13 H :    0.375042
  14 H :    0.407278
  15 O :   -0.772595
  16 H :    0.375414
  17 H :    0.408640
  18 O :   -0.775214
  19 H :    0.399330
  20 H :    0.355093
  21 O :   -0.754152
  22 H :    0.378913
  23 H :    0.390661
  24 O :   -0.776927
  25 H :    0.382365
  26 H :    0.407178
  27 O :   -0.778376
  28 H :    0.392002
  29 H :    0.362041
  30 O :   -0.757155
  31 H :    0.391085
  32 H :    0.373761
  33 O :   -0.773708
  34 H :    0.358783
  35 H :    0.410269
  36 O :   -0.773107
  37 H :    0.364528
  38 H :    0.404280
  39 O :   -0.751373
  40 H :    0.378960
  41 H :    0.393723
  42 O :   -0.771544
  43 H :    0.409621
  44 H :    0.356858
  45 O :   -0.782093
  46 H :    0.394228
  47 H :    0.366722
Sum of atomic charges:    0.0000000

LOEWDIN ATOMIC CHARGES
----------------------
   0 O :   -0.285415
   1 H :    0.187378
   2 H :    0.146214
   3 O :   -0.311792
   4 H :    0.136153
   5 H :    0.149892
   6 O :   -0.304588
   7 H :    0.157455
   8 H :    0.139125
   9 O :   -0.315378
  10 H :    0.144630
  11 H :    0.153930
  12 O :   -0.275433
  13 H :    0.142179
  14 H :    0.187153
  15 O :   -0.283430
  16 H :    0.146081
  17 H :    0.187980
  18 O :   -0.298573
  19 H :    0.147255
  20 H :    0.136239
  21 O :   -0.314784
  22 H :    0.145222
  23 H :    0.149172
  24 O :   -0.285234
  25 H :    0.146055
  26 H :    0.187207
  27 O :   -0.311365
  28 H :    0.147675
  29 H :    0.134401
  30 O :   -0.312013
  31 H :    0.150353
  32 H :    0.141961
  33 O :   -0.302161
  34 H :    0.137801
  35 H :    0.153713
  36 O :   -0.302516
  37 H :    0.135270
  38 H :    0.156489
  39 O :   -0.309144
  40 H :    0.144902
  41 H :    0.149065
  42 O :   -0.289649
  43 H :    0.154091
  44 H :    0.137622
  45 O :   -0.312034
  46 H :    0.142710
  47 H :    0.138135

  Mayer bond orders larger than 0.1
B(  0-O ,  1-H ) :   0.8398 B(  0-O ,  2-H ) :   0.7679 B(  2-H ,  9-O ) :   0.1341
B(  3-O ,  4-H ) :   0.7809 B(  3-O ,  5-H ) :   0.8026 B(  3-O , 34-H ) :   0.1343
B(  4-H , 36-O ) :   0.1269 B(  6-O ,  7-H ) :   0.8171 B(  6-O ,  8-H ) :   0.7824
B(  6-O , 47-H ) :   0.1238 B(  8-H , 27-O ) :   0.1279 B(  9-O , 10-H ) :   0.8042
B(  9-O , 11-H ) :   0.8323 B( 10-H , 12-O ) :   0.1009 B( 12-O , 13-H ) :   0.7534
B( 12-O , 14-H ) :   0.8392 B( 12-O , 46-H ) :   0.1131 B( 13-H , 39-O ) :   0.1516
B( 15-O , 16-H ) :   0.7683 B( 15-O , 17-H ) :   0.8386 B( 15-O , 32-H ) :   0.1083
B( 16-H , 21-O ) :   0.1342 B( 18-O , 19-H ) :   0.7814 B( 18-O , 20-H ) :   0.7856
B( 18-O , 37-H ) :   0.1323 B( 19-H , 24-O ) :   0.1064 B( 20-H , 33-O ) :   0.1243
B( 21-O , 22-H ) :   0.8068 B( 21-O , 23-H ) :   0.8263 B( 24-O , 25-H ) :   0.7630
B( 24-O , 26-H ) :   0.8390 B( 25-H , 30-O ) :   0.1320 B( 27-O , 28-H ) :   0.7957
B( 27-O , 29-H ) :   0.7810 B( 29-H , 42-O ) :   0.1293 B( 30-O , 31-H ) :   0.8240
B( 30-O , 32-H ) :   0.8004 B( 33-O , 34-H ) :   0.7813 B( 33-O , 35-H ) :   0.8052
B( 36-O , 37-H ) :   0.7749 B( 36-O , 38-H ) :   0.8123 B( 39-O , 40-H ) :   0.8067
B( 39-O , 41-H ) :   0.8190 B( 42-O , 43-H ) :   0.7993 B( 42-O , 44-H ) :   0.7813
B( 44-H , 45-O ) :   0.1318 B( 45-O , 46-H ) :   0.7818 B( 45-O , 47-H ) :   0.7861

Dispersion correction           -0.031922224
FINAL SINGLE POINT ENERGY     -1223.361256046773

DIPOLE MOMENT
-------------
                                X             Y             Z
Electronic contribution:      0.08457      -0.04097       0.03817
Nuclear contribution   :      0.13245       0.19210       0.28140
                        -----------------------------------------
Total Dipole Moment    :      0.21702       0.15113       0.31957
                        -----------------------------------------
Magnitude (a.u.)       :      0.41481
Magnitude (Debye)      :      1.05435

                             ****ORCA TERMINATED NORMALLY****
TOTAL RUN TIME: 0 days 0 hours 2 minutes 13 seconds 454 msec
