                         Program Version 4.2.0 -  RELEASE  -
|  1> # 12mecn.remya.etal.2.mol0,1,5
|  2> ! MP2 def2-TZVP EnGrad TightSCF
|  3>
|  4> %pal
|  5>     nprocs 6
|  6> end
|  7>
|  8> %maxcore 8000
|  9>
| 10> %scf
| 11>     ConvForced true
| 12> end
| 13>
| 14> *xyz 0 1
| 15> C  -0.869520000  -3.929380000   1.700199000
| 16> H  -0.057420000  -3.268850000   2.015352000
| 17> H  -0.697530000  -4.930670000   2.101524000
| 18> H  -1.821490000  -3.546590000   2.077146000
| 19> C  -0.916080000  -3.969960000   0.256749000
| 20> N  -0.955390000  -3.995980000  -0.909290000
| 21> C  -4.697980000  -0.249690000   1.746215000
| 22> H  -4.927570000   0.755530000   2.111799000
| 23> H  -3.709180000  -0.561560000   2.093253000
| 24> H  -5.432280000  -0.961520000   2.128066000
| 25> C  -4.714100000  -0.247110000   0.301670000
| 26> N  -4.729750000  -0.234960000  -0.865260000
| 27> C  -1.955700000   2.515080000   1.698463000
| 28> H  -2.923830000   2.883163000   2.049269000
| 29> H  -1.154850000   3.171830000   2.050990000
| 30> H  -1.790380000   1.506115000   2.087896000
| 31> C  -1.948230000   2.482156000   0.253672000
| 32> N  -1.937550000   2.462523000  -0.913150000
| 33> *
| 34>
| 35>                          ****END OF INPUT****

CARTESIAN COORDINATES (ANGSTROEM)
---------------------------------
  C     -0.869520   -3.929380    1.700199
  H     -0.057420   -3.268850    2.015352
  H     -0.697530   -4.930670    2.101524
  H     -1.821490   -3.546590    2.077146
  C     -0.916080   -3.969960    0.256749
  N     -0.955390   -3.995980   -0.909290
  C     -4.697980   -0.249690    1.746215
  H     -4.927570    0.755530    2.111799
  H     -3.709180   -0.561560    2.093253
  H     -5.432280   -0.961520    2.128066
  C     -4.714100   -0.247110    0.301670
  N     -4.729750   -0.234960   -0.865260
  C     -1.955700    2.515080    1.698463
  H     -2.923830    2.883163    2.049269
  H     -1.154850    3.171830    2.050990
  H     -1.790380    1.506115    2.087896
  C     -1.948230    2.482156    0.253672
  N     -1.937550    2.462523   -0.913150

 Total Charge           Charge          ....    0
 Multiplicity           Mult            ....    1
 Number of Electrons    NEL             ....   66
 Basis Dimension        Dim             ....  333

ORBITAL ENERGIES
----------------

  NO   OCC          E(Eh)            E(eV)
   0   2.0000     -15.573797      -423.7846
   1   2.0000     -15.573368      -423.7729
   2   2.0000     -15.572950      -423.7615
   3   2.0000     -11.293688      -307.3169
   4   2.0000     -11.292376      -307.2812
   5   2.0000     -11.289968      -307.2157
   6   2.0000     -11.279433      -306.9290
   7   2.0000     -11.277521      -306.8770
   8   2.0000     -11.277444      -306.8749
   9   2.0000      -1.214204       -33.0402
  10   2.0000      -1.213281       -33.0151
  11   2.0000      -1.212332       -32.9892
  12   2.0000      -1.051502       -28.6128
  13   2.0000      -1.048421       -28.5290
  14   2.0000      -1.048049       -28.5189
  15   2.0000      -0.706649       -19.2289
  16   2.0000      -0.703615       -19.1463
  17   2.0000      -0.703508       -19.1434
  18   2.0000      -0.645491       -17.5647
  19   2.0000      -0.643132       -17.5005
  20   2.0000      -0.637726       -17.3534
  21   2.0000      -0.637026       -17.3344
  22   2.0000      -0.636187       -17.3115
  23   2.0000      -0.632320       -17.2063
  24   2.0000      -0.554994       -15.1022
  25   2.0000      -0.554136       -15.0788
  26   2.0000      -0.552350       -15.0302
  27   2.0000      -0.462365       -12.5816
  28   2.0000      -0.458054       -12.4643
  29   2.0000      -0.457480       -12.4487
  30   2.0000      -0.457099       -12.4383
  31   2.0000      -0.455073       -12.3832
  32   2.0000      -0.449488       -12.2312
  33   0.0000       0.079756         2.1703
  34   0.0000       0.114855         3.1254
  35   0.0000       0.139372         3.7925
  36   0.0000       0.142845         3.8870
  37   0.0000       0.153417         4.1747

MULLIKEN ATOMIC CHARGES
-----------------------
   0 C :   -0.282793
   1 H :    0.171440
   2 H :    0.175425
   3 H :    0.160661
   4 C :   -0.143913
   5 N :   -0.080744
   6 C :   -0.286949
   7 H :    0.167284
   8 H :    0.155370
   9 H :    0.183200
  10 C :   -0.150933
  11 N :   -0.068120
  12 C :   -0.281591
  13 H :    0.166771
  14 H :    0.182888
  15 H :    0.156810
  16 C :   -0.154053
  17 N :   -0.070754
Sum of atomic charges:   -0.0000000

LOEWDIN ATOMIC CHARGES
----------------------
   0 C :   -0.286116
   1 H :    0.151704
   2 H :    0.152043
   3 H :    0.148474
   4 C :   -0.221573
   5 N :    0.055484
   6 C :   -0.289387
   7 H :    0.149914
   8 H :    0.146056
   9 H :    0.152249
  10 C :   -0.225106
  11 N :    0.066241
  12 C :   -0.288605
  13 H :    0.149732
  14 H :    0.153670
  15 H :    0.146799
  16 C :   -0.224629
  17 N :    0.063049

  Mayer bond orders larger than 0.100000
B(  0-C ,  1-H ) :   0.9181 B(  0-C ,  2-H ) :   0.9166 B(  0-C ,  3-H ) :   0.9201
B(  0-C ,  4-C ) :   0.9002 B(  4-C ,  5-N ) :   2.8278 B(  6-C ,  7-H ) :   0.9202
B(  6-C ,  8-H ) :   0.9254 B(  6-C ,  9-H ) :   0.9121 B(  6-C , 10-C ) :   0.8976
B( 10-C , 11-N ) :   2.8192 B( 12-C , 13-H ) :   0.9223 B( 12-C , 14-H ) :   0.9113
B( 12-C , 15-H ) :   0.9220 B( 12-C , 16-C ) :   0.8985 B( 16-C , 17-N ) :   2.8248

MP2 TOTAL ENERGY:     -397.444919565 Eh
FINAL SINGLE POINT ENERGY      -397.444919564983

DIPOLE MOMENT
-------------
                                X             Y             Z
Electronic contribution:     -0.13261      -0.13974      -9.62370
Nuclear contribution   :      0.18858       0.19267      13.91871
                        -----------------------------------------
Total Dipole Moment    :      0.05597       0.05293       4.29501
                        -----------------------------------------
Magnitude (a.u.)       :      4.29570
Magnitude (Debye)      :     10.91881

Rotational constants in cm-1:     0.039573     0.015613     0.014194
Rotational constants in MHz :  1186.366765   468.069408   425.512428

                             ****ORCA TERMINATED NORMALLY****
TOTAL RUN TIME: 0 days 0 hours 2 minutes 57 seconds 302 msec
