                         Program Version 4.2.0 -  RELEASE  -
|  1> # 12mecn.remya.etal.2.mol1,7,8
|  2> ! MP2 def2-TZVP EnGrad TightSCF
|  3>
|  4> %pal
|  5>     nprocs 6
|  6> end
|  7>
|  8> %maxcore 8000
|  9>
| 10> %scf
| 11>     ConvForced true
| 12> end
| 13>
| 14> *xyz 0 1
| 15> C  -4.697980000  -0.249690000   1.746215000
| 16> H  -4.927570000   0.755530000   2.111799000
| 17> H  -3.709180000  -0.561560000   2.093253000
| 18> H  -5.432280000  -0.961520000   2.128066000
| 19> C  -4.714100000  -0.247110000   0.301670000
| 20> N  -4.729750000  -0.234960000  -0.865260000
| 21> C   1.502241000   0.651296000   1.710523000
| 22> H   1.309219000   1.637164000   2.143202000
| 23> H   2.493408000   0.297996000   2.009069000
| 24> H   0.746597000  -0.059850000   2.055508000
| 25> C   1.447974000   0.738517000   0.269805000
| 26> N   1.405612000   0.808047000  -0.894380000
| 27> C   1.912641000  -2.468050000  -1.750510000
| 28> H   2.876947000  -2.793500000  -2.151200000
| 29> H   1.688016000  -1.463720000  -2.122170000
| 30> H   1.123460000  -3.154780000  -2.069590000
| 31> C   1.977850000  -2.444240000  -0.306900000
| 32> N   2.036566000  -2.426130000   0.858249000
| 33> *
| 34>
| 35>                          ****END OF INPUT****

CARTESIAN COORDINATES (ANGSTROEM)
---------------------------------
  C     -4.697980   -0.249690    1.746215
  H     -4.927570    0.755530    2.111799
  H     -3.709180   -0.561560    2.093253
  H     -5.432280   -0.961520    2.128066
  C     -4.714100   -0.247110    0.301670
  N     -4.729750   -0.234960   -0.865260
  C      1.502241    0.651296    1.710523
  H      1.309219    1.637164    2.143202
  H      2.493408    0.297996    2.009069
  H      0.746597   -0.059850    2.055508
  C      1.447974    0.738517    0.269805
  N      1.405612    0.808047   -0.894380
  C      1.912641   -2.468050   -1.750510
  H      2.876947   -2.793500   -2.151200
  H      1.688016   -1.463720   -2.122170
  H      1.123460   -3.154780   -2.069590
  C      1.977850   -2.444240   -0.306900
  N      2.036566   -2.426130    0.858249

 Total Charge           Charge          ....    0
 Multiplicity           Mult            ....    1
 Number of Electrons    NEL             ....   66
 Basis Dimension        Dim             ....  333

ORBITAL ENERGIES
----------------

  NO   OCC          E(Eh)            E(eV)
   0   2.0000     -15.573198      -423.7683
   1   2.0000     -15.570575      -423.6969
   2   2.0000     -15.569302      -423.6622
   3   2.0000     -11.285673      -307.0988
   4   2.0000     -11.282595      -307.0150
   5   2.0000     -11.280876      -306.9683
   6   2.0000     -11.279973      -306.9437
   7   2.0000     -11.274273      -306.7886
   8   2.0000     -11.271794      -306.7211
   9   2.0000      -1.217032       -33.1171
  10   2.0000      -1.214215       -33.0405
  11   2.0000      -1.212232       -32.9865
  12   2.0000      -1.044801       -28.4305
  13   2.0000      -1.036727       -28.2108
  14   2.0000      -1.033759       -28.1300
  15   2.0000      -0.700654       -19.0658
  16   2.0000      -0.693463       -18.8701
  17   2.0000      -0.690062       -18.7775
  18   2.0000      -0.634864       -17.2755
  19   2.0000      -0.630783       -17.1645
  20   2.0000      -0.629874       -17.1397
  21   2.0000      -0.623909       -16.9774
  22   2.0000      -0.621037       -16.8993
  23   2.0000      -0.615661       -16.7530
  24   2.0000      -0.558191       -15.1891
  25   2.0000      -0.555635       -15.1196
  26   2.0000      -0.554809       -15.0971
  27   2.0000      -0.463028       -12.5996
  28   2.0000      -0.458403       -12.4738
  29   2.0000      -0.457632       -12.4528
  30   2.0000      -0.457074       -12.4376
  31   2.0000      -0.455603       -12.3976
  32   2.0000      -0.450710       -12.2645
  33   0.0000       0.107736         2.9316
  34   0.0000       0.129917         3.5352
  35   0.0000       0.143780         3.9125
  36   0.0000       0.165056         4.4914
  37   0.0000       0.170742         4.6461

MULLIKEN ATOMIC CHARGES
-----------------------
   0 C :   -0.279089
   1 H :    0.172271
   2 H :    0.170022
   3 H :    0.172565
   4 C :   -0.145118
   5 N :   -0.090657
   6 C :   -0.256834
   7 H :    0.170669
   8 H :    0.177398
   9 H :    0.172105
  10 C :   -0.121846
  11 N :   -0.141929
  12 C :   -0.285356
  13 H :    0.166151
  14 H :    0.206146
  15 H :    0.168251
  16 C :   -0.112699
  17 N :   -0.142050
Sum of atomic charges:   -0.0000000

LOEWDIN ATOMIC CHARGES
----------------------
   0 C :   -0.284075
   1 H :    0.152836
   2 H :    0.152186
   3 H :    0.151737
   4 C :   -0.219966
   5 N :    0.047281
   6 C :   -0.285470
   7 H :    0.149211
   8 H :    0.157216
   9 H :    0.154977
  10 C :   -0.212525
  11 N :    0.031974
  12 C :   -0.280923
  13 H :    0.152213
  14 H :    0.157905
  15 H :    0.152437
  16 C :   -0.209162
  17 N :    0.032147

  Mayer bond orders larger than 0.100000
B(  0-C ,  1-H ) :   0.9162 B(  0-C ,  2-H ) :   0.9172 B(  0-C ,  3-H ) :   0.9169
B(  0-C ,  4-C ) :   0.9014 B(  4-C ,  5-N ) :   2.8355 B(  6-C ,  7-H ) :   0.9109
B(  6-C ,  8-H ) :   0.9125 B(  6-C ,  9-H ) :   0.9141 B(  6-C , 10-C ) :   0.9104
B( 10-C , 11-N ) :   2.7790 B( 12-C , 13-H ) :   0.9152 B( 12-C , 14-H ) :   0.9032
B( 12-C , 15-H ) :   0.9148 B( 12-C , 16-C ) :   0.8994 B( 16-C , 17-N ) :   2.7956

MP2 TOTAL ENERGY:     -397.458780771 Eh
FINAL SINGLE POINT ENERGY      -397.458780770651

DIPOLE MOMENT
-------------
                                X             Y             Z
Electronic contribution:     -0.01925       0.26169      -3.14093
Nuclear contribution   :      0.02412      -0.38905       4.62189
                        -----------------------------------------
Total Dipole Moment    :      0.00487      -0.12736       1.48096
                        -----------------------------------------
Magnitude (a.u.)       :      1.48643
Magnitude (Debye)      :      3.77821

Rotational constants in cm-1:     0.045250     0.012901     0.011959
Rotational constants in MHz :  1356.559871   386.767845   358.520736

                             ****ORCA TERMINATED NORMALLY****
TOTAL RUN TIME: 0 days 0 hours 3 minutes 8 seconds 350 msec
