                         Program Version 4.2.0 -  RELEASE  -
|  1> # 12h2o.su.etal.mol2,3,5,6,8,9,11
|  2> ! MP2 def2-TZVP EnGrad TightSCF
|  3>
|  4> %pal
|  5>     nprocs 6
|  6> end
|  7>
|  8> %maxcore 8000
|  9>
| 10> %scf
| 11>     ConvForced true
| 12> end
| 13>
| 14> *xyz 0 1
| 15> O   0.923410000  -1.794470000  -2.768350000
| 16> H   1.359750000  -2.338250000  -3.430940000
| 17> H   1.303000000  -0.879480000  -2.865760000
| 18> O  -1.752130000  -0.741530000  -2.896280000
| 19> H  -2.036450000  -0.920500000  -1.984040000
| 20> H  -0.921210000  -1.242140000  -2.984230000
| 21> O   0.885520000  -1.737840000   0.052730000
| 22> H   1.284090000  -0.839590000   0.017130000
| 23> H   1.032320000  -2.090180000  -0.841890000
| 24> O   1.737840000   0.885520000  -0.052730000
| 25> H   2.090180000   1.032320000   0.841890000
| 26> H   0.839590000   1.284090000  -0.017130000
| 27> O   1.752130000   0.741530000  -2.896280000
| 28> H   2.036450000   0.920500000  -1.984040000
| 29> H   0.921210000   1.242140000  -2.984230000
| 30> O   0.741530000  -1.752130000   2.896280000
| 31> H   0.920500000  -2.036450000   1.984040000
| 32> H   1.242140000  -0.921210000   2.984230000
| 33> O  -0.741530000   1.752130000   2.896280000
| 34> H  -0.920500000   2.036450000   1.984040000
| 35> H  -1.242140000   0.921210000   2.984230000
| 36> *
| 37>
| 38>                          ****END OF INPUT****

CARTESIAN COORDINATES (ANGSTROEM)
---------------------------------
  O      0.923410   -1.794470   -2.768350
  H      1.359750   -2.338250   -3.430940
  H      1.303000   -0.879480   -2.865760
  O     -1.752130   -0.741530   -2.896280
  H     -2.036450   -0.920500   -1.984040
  H     -0.921210   -1.242140   -2.984230
  O      0.885520   -1.737840    0.052730
  H      1.284090   -0.839590    0.017130
  H      1.032320   -2.090180   -0.841890
  O      1.737840    0.885520   -0.052730
  H      2.090180    1.032320    0.841890
  H      0.839590    1.284090   -0.017130
  O      1.752130    0.741530   -2.896280
  H      2.036450    0.920500   -1.984040
  H      0.921210    1.242140   -2.984230
  O      0.741530   -1.752130    2.896280
  H      0.920500   -2.036450    1.984040
  H      1.242140   -0.921210    2.984230
  O     -0.741530    1.752130    2.896280
  H     -0.920500    2.036450    1.984040
  H     -1.242140    0.921210    2.984230

 Total Charge           Charge          ....    0
 Multiplicity           Mult            ....    1
 Number of Electrons    NEL             ....   70
 Basis Dimension        Dim             ....  301

ORBITAL ENERGIES
----------------

  NO   OCC          E(Eh)            E(eV)
   0   2.0000     -20.641424      -561.6817
   1   2.0000     -20.599008      -560.5275
   2   2.0000     -20.582817      -560.0869
   3   2.0000     -20.571270      -559.7727
   4   2.0000     -20.540397      -558.9326
   5   2.0000     -20.539288      -558.9024
   6   2.0000     -20.533321      -558.7401
   7   2.0000      -1.424613       -38.7657
   8   2.0000      -1.388466       -37.7821
   9   2.0000      -1.361693       -37.0536
  10   2.0000      -1.357154       -36.9300
  11   2.0000      -1.328454       -36.1491
  12   2.0000      -1.321245       -35.9529
  13   2.0000      -1.313327       -35.7374
  14   2.0000      -0.783883       -21.3306
  15   2.0000      -0.749005       -20.3815
  16   2.0000      -0.738703       -20.1011
  17   2.0000      -0.724317       -19.7097
  18   2.0000      -0.712037       -19.3755
  19   2.0000      -0.690863       -18.7993
  20   2.0000      -0.683788       -18.6068
  21   2.0000      -0.667373       -18.1601
  22   2.0000      -0.626818       -17.0566
  23   2.0000      -0.612700       -16.6724
  24   2.0000      -0.599221       -16.3056
  25   2.0000      -0.587947       -15.9988
  26   2.0000      -0.564871       -15.3709
  27   2.0000      -0.561998       -15.2927
  28   2.0000      -0.542816       -14.7708
  29   2.0000      -0.535042       -14.5592
  30   2.0000      -0.526722       -14.3328
  31   2.0000      -0.514678       -14.0051
  32   2.0000      -0.492080       -13.3902
  33   2.0000      -0.486894       -13.2491
  34   2.0000      -0.478973       -13.0335
  35   0.0000       0.060315         1.6413
  36   0.0000       0.117679         3.2022
  37   0.0000       0.122252         3.3266
  38   0.0000       0.144711         3.9378
  39   0.0000       0.166828         4.5396

MULLIKEN ATOMIC CHARGES
-----------------------
   0 O :   -0.751320
   1 H :    0.350905
   2 H :    0.383981
   3 O :   -0.715942
   4 H :    0.331751
   5 H :    0.363101
   6 O :   -0.740280
   7 H :    0.332919
   8 H :    0.373352
   9 O :   -0.708555
  10 H :    0.378845
  11 H :    0.358574
  12 O :   -0.696052
  13 H :    0.387367
  14 H :    0.357946
  15 O :   -0.696307
  16 H :    0.377538
  17 H :    0.309212
  18 O :   -0.677488
  19 H :    0.321353
  20 H :    0.359098
Sum of atomic charges:   -0.0000000

LOEWDIN ATOMIC CHARGES
----------------------
   0 O :   -0.312908
   1 H :    0.159620
   2 H :    0.146354
   3 O :   -0.351099
   4 H :    0.160377
   5 H :    0.146614
   6 O :   -0.346080
   7 H :    0.134010
   8 H :    0.149499
   9 O :   -0.274941
  10 H :    0.180984
  11 H :    0.179121
  12 O :   -0.270556
  13 H :    0.158540
  14 H :    0.174279
  15 O :   -0.340598
  16 H :    0.153935
  17 H :    0.150330
  18 O :   -0.328627
  19 H :    0.156488
  20 H :    0.174660

  Mayer bond orders larger than 0.100000
B(  0-O ,  1-H ) :   0.8401 B(  0-O ,  2-H ) :   0.7454 B(  3-O ,  4-H ) :   0.8552
B(  3-O ,  5-H ) :   0.8111 B(  6-O ,  7-H ) :   0.8083 B(  6-O ,  8-H ) :   0.8080
B(  9-O , 10-H ) :   0.8216 B(  9-O , 11-H ) :   0.8269 B( 12-O , 13-H ) :   0.8064
B( 12-O , 14-H ) :   0.8334 B( 15-O , 16-H ) :   0.8086 B( 15-O , 17-H ) :   0.8658
B( 18-O , 19-H ) :   0.8606 B( 18-O , 20-H ) :   0.8350

MP2 TOTAL ENERGY:     -534.242387697 Eh
FINAL SINGLE POINT ENERGY      -534.242387697363

DIPOLE MOMENT
-------------
                                X             Y             Z
Electronic contribution:      0.20349       0.16729      -0.08651
Nuclear contribution   :      0.67870       1.21732      -0.63259
                        -----------------------------------------
Total Dipole Moment    :      0.88219       1.38461      -0.71911
                        -----------------------------------------
Magnitude (a.u.)       :      1.79235
Magnitude (Debye)      :      4.55579

Rotational constants in cm-1:     0.040920     0.018598     0.017667
Rotational constants in MHz :  1226.759914   557.555159   529.635486

                             ****ORCA TERMINATED NORMALLY****
TOTAL RUN TIME: 0 days 0 hours 1 minutes 49 seconds 750 msec
