                         Program Version 4.2.0 -  RELEASE  -
|  1> # 12h2o.su.etal.mol0,2,3,4,8,9,10
|  2> ! MP2 def2-TZVP EnGrad TightSCF
|  3>
|  4> %pal
|  5>     nprocs 6
|  6> end
|  7>
|  8> %maxcore 8000
|  9>
| 10> %scf
| 11>     ConvForced true
| 12> end
| 13>
| 14> *xyz 0 1
| 15> O   1.794470000   0.923410000   2.768350000
| 16> H   2.338250000   1.359750000   3.430940000
| 17> H   0.879480000   1.303000000   2.865760000
| 18> O   0.923410000  -1.794470000  -2.768350000
| 19> H   1.359750000  -2.338250000  -3.430940000
| 20> H   1.303000000  -0.879480000  -2.865760000
| 21> O  -1.752130000  -0.741530000  -2.896280000
| 22> H  -2.036450000  -0.920500000  -1.984040000
| 23> H  -0.921210000  -1.242140000  -2.984230000
| 24> O  -0.885520000   1.737840000   0.052730000
| 25> H  -1.032320000   2.090180000  -0.841890000
| 26> H  -1.284090000   0.839590000   0.017130000
| 27> O   1.752130000   0.741530000  -2.896280000
| 28> H   2.036450000   0.920500000  -1.984040000
| 29> H   0.921210000   1.242140000  -2.984230000
| 30> O   0.741530000  -1.752130000   2.896280000
| 31> H   0.920500000  -2.036450000   1.984040000
| 32> H   1.242140000  -0.921210000   2.984230000
| 33> O  -0.923410000   1.794470000  -2.768350000
| 34> H  -1.359750000   2.338250000  -3.430940000
| 35> H  -1.303000000   0.879480000  -2.865760000
| 36> *
| 37>
| 38>                          ****END OF INPUT****

CARTESIAN COORDINATES (ANGSTROEM)
---------------------------------
  O      1.794470    0.923410    2.768350
  H      2.338250    1.359750    3.430940
  H      0.879480    1.303000    2.865760
  O      0.923410   -1.794470   -2.768350
  H      1.359750   -2.338250   -3.430940
  H      1.303000   -0.879480   -2.865760
  O     -1.752130   -0.741530   -2.896280
  H     -2.036450   -0.920500   -1.984040
  H     -0.921210   -1.242140   -2.984230
  O     -0.885520    1.737840    0.052730
  H     -1.032320    2.090180   -0.841890
  H     -1.284090    0.839590    0.017130
  O      1.752130    0.741530   -2.896280
  H      2.036450    0.920500   -1.984040
  H      0.921210    1.242140   -2.984230
  O      0.741530   -1.752130    2.896280
  H      0.920500   -2.036450    1.984040
  H      1.242140   -0.921210    2.984230
  O     -0.923410    1.794470   -2.768350
  H     -1.359750    2.338250   -3.430940
  H     -1.303000    0.879480   -2.865760

 Total Charge           Charge          ....    0
 Multiplicity           Mult            ....    1
 Number of Electrons    NEL             ....   70
 Basis Dimension        Dim             ....  301

ORBITAL ENERGIES
----------------

  NO   OCC          E(Eh)            E(eV)
   0   2.0000     -20.585277      -560.1539
   1   2.0000     -20.579839      -560.0059
   2   2.0000     -20.576637      -559.9188
   3   2.0000     -20.574309      -559.8554
   4   2.0000     -20.554211      -559.3085
   5   2.0000     -20.546497      -559.0986
   6   2.0000     -20.527118      -558.5713
   7   2.0000      -1.380984       -37.5785
   8   2.0000      -1.365572       -37.1591
   9   2.0000      -1.357624       -36.9428
  10   2.0000      -1.357565       -36.9412
  11   2.0000      -1.334391       -36.3106
  12   2.0000      -1.324971       -36.0543
  13   2.0000      -1.309464       -35.6323
  14   2.0000      -0.743542       -20.2328
  15   2.0000      -0.737036       -20.0558
  16   2.0000      -0.724572       -19.7166
  17   2.0000      -0.723593       -19.6900
  18   2.0000      -0.716982       -19.5101
  19   2.0000      -0.694607       -18.9012
  20   2.0000      -0.678460       -18.4618
  21   2.0000      -0.637602       -17.3500
  22   2.0000      -0.606734       -16.5101
  23   2.0000      -0.600857       -16.3502
  24   2.0000      -0.597692       -16.2640
  25   2.0000      -0.575530       -15.6610
  26   2.0000      -0.563013       -15.3204
  27   2.0000      -0.551297       -15.0015
  28   2.0000      -0.527692       -14.3592
  29   2.0000      -0.521615       -14.1939
  30   2.0000      -0.517114       -14.0714
  31   2.0000      -0.514676       -14.0051
  32   2.0000      -0.504785       -13.7359
  33   2.0000      -0.491874       -13.3846
  34   2.0000      -0.474890       -12.9224
  35   0.0000       0.092243         2.5101
  36   0.0000       0.123081         3.3492
  37   0.0000       0.140975         3.8361
  38   0.0000       0.146078         3.9750
  39   0.0000       0.166103         4.5199

MULLIKEN ATOMIC CHARGES
-----------------------
   0 O :   -0.697891
   1 H :    0.348862
   2 H :    0.369532
   3 O :   -0.745382
   4 H :    0.344046
   5 H :    0.380015
   6 O :   -0.704310
   7 H :    0.348257
   8 H :    0.383599
   9 O :   -0.695779
  10 H :    0.368406
  11 H :    0.315492
  12 O :   -0.710365
  13 H :    0.362235
  14 H :    0.378089
  15 O :   -0.708325
  16 H :    0.329486
  17 H :    0.356987
  18 O :   -0.756571
  19 H :    0.353345
  20 H :    0.380273
Sum of atomic charges:   -0.0000000

LOEWDIN ATOMIC CHARGES
----------------------
   0 O :   -0.311473
   1 H :    0.161961
   2 H :    0.191220
   3 O :   -0.341817
   4 H :    0.157045
   5 H :    0.145088
   6 O :   -0.279827
   7 H :    0.167416
   8 H :    0.156523
   9 O :   -0.346860
  10 H :    0.148502
  11 H :    0.159614
  12 O :   -0.282801
  13 H :    0.174713
  14 H :    0.153527
  15 O :   -0.350533
  16 H :    0.160187
  17 H :    0.146904
  18 O :   -0.315023
  19 H :    0.160363
  20 H :    0.145270

  Mayer bond orders larger than 0.100000
B(  0-O ,  1-H ) :   0.8435 B(  0-O ,  2-H ) :   0.8232 B(  3-O ,  4-H ) :   0.8467
B(  3-O ,  5-H ) :   0.7483 B(  5-H , 12-O ) :   0.1093 B(  6-O ,  7-H ) :   0.8426
B(  6-O ,  8-H ) :   0.7749 B(  6-O , 20-H ) :   0.1129 B(  9-O , 10-H ) :   0.8142
B(  9-O , 11-H ) :   0.8611 B( 12-O , 13-H ) :   0.8336 B( 12-O , 14-H ) :   0.7913
B( 15-O , 16-H ) :   0.8580 B( 15-O , 17-H ) :   0.8171 B( 18-O , 19-H ) :   0.8388
B( 18-O , 20-H ) :   0.7345

MP2 TOTAL ENERGY:     -534.254214122 Eh
FINAL SINGLE POINT ENERGY      -534.254214122197

DIPOLE MOMENT
-------------
                                X             Y             Z
Electronic contribution:      0.14608       0.11532      -0.09966
Nuclear contribution   :     -0.19727       0.67972      -0.72077
                        -----------------------------------------
Total Dipole Moment    :     -0.05119       0.79504      -0.82043
                        -----------------------------------------
Magnitude (a.u.)       :      1.14360
Magnitude (Debye)      :      2.90679

Rotational constants in cm-1:     0.038354     0.016875     0.015342
Rotational constants in MHz :  1149.815561   505.904692   459.932457

                             ****ORCA TERMINATED NORMALLY****
TOTAL RUN TIME: 0 days 0 hours 1 minutes 42 seconds 592 msec
