                         Program Version 4.2.0 -  RELEASE  -
|  1> # 12mecn.remya.etal.2.mol1,7,10
|  2> ! MP2 def2-TZVP EnGrad TightSCF
|  3>
|  4> %pal
|  5>     nprocs 6
|  6> end
|  7>
|  8> %maxcore 8000
|  9>
| 10> %scf
| 11>     ConvForced true
| 12> end
| 13>
| 14> *xyz 0 1
| 15> C  -4.697980000  -0.249690000   1.746215000
| 16> H  -4.927570000   0.755530000   2.111799000
| 17> H  -3.709180000  -0.561560000   2.093253000
| 18> H  -5.432280000  -0.961520000   2.128066000
| 19> C  -4.714100000  -0.247110000   0.301670000
| 20> N  -4.729750000  -0.234960000  -0.865260000
| 21> C   1.502241000   0.651296000   1.710523000
| 22> H   1.309219000   1.637164000   2.143202000
| 23> H   2.493408000   0.297996000   2.009069000
| 24> H   0.746597000  -0.059850000   2.055508000
| 25> C   1.447974000   0.738517000   0.269805000
| 26> N   1.405612000   0.808047000  -0.894380000
| 27> C   4.602033000   0.321019000  -1.784800000
| 28> H   4.827650000  -0.662160000  -2.207910000
| 29> H   5.320558000   1.057980000  -2.148500000
| 30> H   3.601982000   0.643751000  -2.087520000
| 31> C   4.654967000   0.244048000  -0.343060000
| 32> N   4.691648000   0.166590000   0.820757000
| 33> *
| 34>
| 35>                          ****END OF INPUT****

CARTESIAN COORDINATES (ANGSTROEM)
---------------------------------
  C     -4.697980   -0.249690    1.746215
  H     -4.927570    0.755530    2.111799
  H     -3.709180   -0.561560    2.093253
  H     -5.432280   -0.961520    2.128066
  C     -4.714100   -0.247110    0.301670
  N     -4.729750   -0.234960   -0.865260
  C      1.502241    0.651296    1.710523
  H      1.309219    1.637164    2.143202
  H      2.493408    0.297996    2.009069
  H      0.746597   -0.059850    2.055508
  C      1.447974    0.738517    0.269805
  N      1.405612    0.808047   -0.894380
  C      4.602033    0.321019   -1.784800
  H      4.827650   -0.662160   -2.207910
  H      5.320558    1.057980   -2.148500
  H      3.601982    0.643751   -2.087520
  C      4.654967    0.244048   -0.343060
  N      4.691648    0.166590    0.820757

 Total Charge           Charge          ....    0
 Multiplicity           Mult            ....    1
 Number of Electrons    NEL             ....   66
 Basis Dimension        Dim             ....  333

ORBITAL ENERGIES
----------------

  NO   OCC          E(Eh)            E(eV)
   0   2.0000     -15.573082      -423.7651
   1   2.0000     -15.570921      -423.7063
   2   2.0000     -15.570826      -423.7037
   3   2.0000     -11.286283      -307.1154
   4   2.0000     -11.283078      -307.0282
   5   2.0000     -11.282282      -307.0065
   6   2.0000     -11.279625      -306.9342
   7   2.0000     -11.273790      -306.7754
   8   2.0000     -11.271108      -306.7024
   9   2.0000      -1.217740       -33.1364
  10   2.0000      -1.213964       -33.0336
  11   2.0000      -1.213405       -33.0184
  12   2.0000      -1.045196       -28.4412
  13   2.0000      -1.037564       -28.2336
  14   2.0000      -1.034170       -28.1412
  15   2.0000      -0.700995       -19.0750
  16   2.0000      -0.694688       -18.9034
  17   2.0000      -0.690485       -18.7891
  18   2.0000      -0.635377       -17.2895
  19   2.0000      -0.631364       -17.1803
  20   2.0000      -0.630994       -17.1702
  21   2.0000      -0.625669       -17.0253
  22   2.0000      -0.623176       -16.9575
  23   2.0000      -0.614202       -16.7133
  24   2.0000      -0.558780       -15.2052
  25   2.0000      -0.555457       -15.1148
  26   2.0000      -0.555259       -15.1094
  27   2.0000      -0.460087       -12.5196
  28   2.0000      -0.459429       -12.5017
  29   2.0000      -0.457398       -12.4464
  30   2.0000      -0.456849       -12.4315
  31   2.0000      -0.456443       -12.4204
  32   2.0000      -0.454380       -12.3643
  33   0.0000       0.106574         2.9000
  34   0.0000       0.130518         3.5516
  35   0.0000       0.140948         3.8354
  36   0.0000       0.163569         4.4509
  37   0.0000       0.170231         4.6322

MULLIKEN ATOMIC CHARGES
-----------------------
   0 C :   -0.278603
   1 H :    0.172558
   2 H :    0.167301
   3 H :    0.172705
   4 C :   -0.145313
   5 N :   -0.088650
   6 C :   -0.284274
   7 H :    0.166211
   8 H :    0.206481
   9 H :    0.160740
  10 C :   -0.102327
  11 N :   -0.147158
  12 C :   -0.284863
  13 H :    0.166754
  14 H :    0.166218
  15 H :    0.206843
  16 C :   -0.101283
  17 N :   -0.153341
Sum of atomic charges:    0.0000000

LOEWDIN ATOMIC CHARGES
----------------------
   0 C :   -0.284409
   1 H :    0.152841
   2 H :    0.151343
   3 H :    0.151657
   4 C :   -0.220295
   5 N :    0.048862
   6 C :   -0.283031
   7 H :    0.152183
   8 H :    0.157424
   9 H :    0.149606
  10 C :   -0.209443
  11 N :    0.032801
  12 C :   -0.281604
  13 H :    0.152997
  14 H :    0.150414
  15 H :    0.157756
  16 C :   -0.207397
  17 N :    0.028296

  Mayer bond orders larger than 0.100000
B(  0-C ,  1-H ) :   0.9163 B(  0-C ,  2-H ) :   0.9180 B(  0-C ,  3-H ) :   0.9171
B(  0-C ,  4-C ) :   0.9014 B(  4-C ,  5-N ) :   2.8342 B(  6-C ,  7-H ) :   0.9152
B(  6-C ,  8-H ) :   0.9014 B(  6-C ,  9-H ) :   0.9181 B(  6-C , 10-C ) :   0.8999
B( 10-C , 11-N ) :   2.7689 B( 12-C , 13-H ) :   0.9139 B( 12-C , 14-H ) :   0.9164
B( 12-C , 15-H ) :   0.9014 B( 12-C , 16-C ) :   0.9016 B( 16-C , 17-N ) :   2.7719

MP2 TOTAL ENERGY:     -397.458426856 Eh
FINAL SINGLE POINT ENERGY      -397.458426856064

DIPOLE MOMENT
-------------
                                X             Y             Z
Electronic contribution:     -0.03685       0.03758      -3.15483
Nuclear contribution   :      0.06150      -0.04475       4.62815
                        -----------------------------------------
Total Dipole Moment    :      0.02465      -0.00717       1.47331
                        -----------------------------------------
Magnitude (a.u.)       :      1.47354
Magnitude (Debye)      :      3.74543

Rotational constants in cm-1:     0.091691     0.008855     0.008203
Rotational constants in MHz :  2748.817981   265.478965   245.933836

                             ****ORCA TERMINATED NORMALLY****
TOTAL RUN TIME: 0 days 0 hours 2 minutes 44 seconds 53 msec
