                         Program Version 4.2.0 -  RELEASE  -
|  1> # 12h2o.su.etal.mol0,1,2,3,4,9,10,11
|  2> ! MP2 def2-TZVP EnGrad TightSCF
|  3>
|  4> %pal
|  5>     nprocs 6
|  6> end
|  7>
|  8> %maxcore 8000
|  9>
| 10> %scf
| 11>     ConvForced true
| 12> end
| 13>
| 14> *xyz 0 1
| 15> O   1.794470000   0.923410000   2.768350000
| 16> H   2.338250000   1.359750000   3.430940000
| 17> H   0.879480000   1.303000000   2.865760000
| 18> O  -1.794470000  -0.923410000   2.768350000
| 19> H  -2.338250000  -1.359750000   3.430940000
| 20> H  -0.879480000  -1.303000000   2.865760000
| 21> O   0.923410000  -1.794470000  -2.768350000
| 22> H   1.359750000  -2.338250000  -3.430940000
| 23> H   1.303000000  -0.879480000  -2.865760000
| 24> O  -1.752130000  -0.741530000  -2.896280000
| 25> H  -2.036450000  -0.920500000  -1.984040000
| 26> H  -0.921210000  -1.242140000  -2.984230000
| 27> O  -0.885520000   1.737840000   0.052730000
| 28> H  -1.032320000   2.090180000  -0.841890000
| 29> H  -1.284090000   0.839590000   0.017130000
| 30> O   0.741530000  -1.752130000   2.896280000
| 31> H   0.920500000  -2.036450000   1.984040000
| 32> H   1.242140000  -0.921210000   2.984230000
| 33> O  -0.923410000   1.794470000  -2.768350000
| 34> H  -1.359750000   2.338250000  -3.430940000
| 35> H  -1.303000000   0.879480000  -2.865760000
| 36> O  -0.741530000   1.752130000   2.896280000
| 37> H  -0.920500000   2.036450000   1.984040000
| 38> H  -1.242140000   0.921210000   2.984230000
| 39> *
| 40>
| 41>                          ****END OF INPUT****

CARTESIAN COORDINATES (ANGSTROEM)
---------------------------------
  O      1.794470    0.923410    2.768350
  H      2.338250    1.359750    3.430940
  H      0.879480    1.303000    2.865760
  O     -1.794470   -0.923410    2.768350
  H     -2.338250   -1.359750    3.430940
  H     -0.879480   -1.303000    2.865760
  O      0.923410   -1.794470   -2.768350
  H      1.359750   -2.338250   -3.430940
  H      1.303000   -0.879480   -2.865760
  O     -1.752130   -0.741530   -2.896280
  H     -2.036450   -0.920500   -1.984040
  H     -0.921210   -1.242140   -2.984230
  O     -0.885520    1.737840    0.052730
  H     -1.032320    2.090180   -0.841890
  H     -1.284090    0.839590    0.017130
  O      0.741530   -1.752130    2.896280
  H      0.920500   -2.036450    1.984040
  H      1.242140   -0.921210    2.984230
  O     -0.923410    1.794470   -2.768350
  H     -1.359750    2.338250   -3.430940
  H     -1.303000    0.879480   -2.865760
  O     -0.741530    1.752130    2.896280
  H     -0.920500    2.036450    1.984040
  H     -1.242140    0.921210    2.984230

 Total Charge           Charge          ....    0
 Multiplicity           Mult            ....    1
 Number of Electrons    NEL             ....   80
 Basis Dimension        Dim             ....  344

ORBITAL ENERGIES
----------------

  NO   OCC          E(Eh)            E(eV)
   0   2.0000     -20.604641      -560.6808
   1   2.0000     -20.586555      -560.1886
   2   2.0000     -20.562289      -559.5283
   3   2.0000     -20.549927      -559.1919
   4   2.0000     -20.547351      -559.1218
   5   2.0000     -20.542818      -558.9985
   6   2.0000     -20.529282      -558.6302
   7   2.0000     -20.528774      -558.6163
   8   2.0000      -1.384931       -37.6859
   9   2.0000      -1.373200       -37.3667
  10   2.0000      -1.354752       -36.8647
  11   2.0000      -1.337545       -36.3964
  12   2.0000      -1.330204       -36.1967
  13   2.0000      -1.324527       -36.0422
  14   2.0000      -1.321452       -35.9585
  15   2.0000      -1.304777       -35.5048
  16   2.0000      -0.751598       -20.4520
  17   2.0000      -0.734117       -19.9764
  18   2.0000      -0.717995       -19.5376
  19   2.0000      -0.713843       -19.4246
  20   2.0000      -0.709626       -19.3099
  21   2.0000      -0.699429       -19.0324
  22   2.0000      -0.690873       -18.7996
  23   2.0000      -0.682206       -18.5638
  24   2.0000      -0.633255       -17.2317
  25   2.0000      -0.610569       -16.6144
  26   2.0000      -0.608456       -16.5569
  27   2.0000      -0.588137       -16.0040
  28   2.0000      -0.575516       -15.6606
  29   2.0000      -0.569462       -15.4959
  30   2.0000      -0.560211       -15.2441
  31   2.0000      -0.545723       -14.8499
  32   2.0000      -0.534965       -14.5571
  33   2.0000      -0.522775       -14.2254
  34   2.0000      -0.503001       -13.6874
  35   2.0000      -0.498829       -13.5738
  36   2.0000      -0.494043       -13.4436
  37   2.0000      -0.491284       -13.3685
  38   2.0000      -0.479509       -13.0481
  39   2.0000      -0.474501       -12.9118
  40   0.0000       0.089504         2.4355
  41   0.0000       0.120995         3.2924
  42   0.0000       0.140247         3.8163
  43   0.0000       0.156431         4.2567
  44   0.0000       0.167433         4.5561

MULLIKEN ATOMIC CHARGES
-----------------------
   0 O :   -0.744635
   1 H :    0.334521
   2 H :    0.385379
   3 O :   -0.746294
   4 H :    0.339896
   5 H :    0.378224
   6 O :   -0.705596
   7 H :    0.358792
   8 H :    0.372576
   9 O :   -0.698125
  10 H :    0.351089
  11 H :    0.378934
  12 O :   -0.711134
  13 H :    0.378015
  14 H :    0.322624
  15 O :   -0.709555
  16 H :    0.350458
  17 H :    0.379310
  18 O :   -0.740643
  19 H :    0.338658
  20 H :    0.367839
  21 O :   -0.729496
  22 H :    0.386303
  23 H :    0.362859
Sum of atomic charges:    0.0000000

LOEWDIN ATOMIC CHARGES
----------------------
   0 O :   -0.342379
   1 H :    0.152461
   2 H :    0.146297
   3 O :   -0.344689
   4 H :    0.154897
   5 H :    0.144658
   6 O :   -0.311525
   7 H :    0.166843
   8 H :    0.193183
   9 O :   -0.278981
  10 H :    0.168730
  11 H :    0.155442
  12 O :   -0.326422
  13 H :    0.154172
  14 H :    0.162048
  15 O :   -0.285687
  16 H :    0.169579
  17 H :    0.154985
  18 O :   -0.342609
  19 H :    0.154555
  20 H :    0.142063
  21 O :   -0.292042
  22 H :    0.156889
  23 H :    0.147535

  Mayer bond orders larger than 0.100000
B(  0-O ,  1-H ) :   0.8518 B(  0-O ,  2-H ) :   0.7382 B(  2-H , 21-O ) :   0.1181
B(  3-O ,  4-H ) :   0.8493 B(  3-O ,  5-H ) :   0.7490 B(  5-H , 15-O ) :   0.1104
B(  6-O ,  7-H ) :   0.8379 B(  6-O ,  8-H ) :   0.8213 B(  9-O , 10-H ) :   0.8414
B(  9-O , 11-H ) :   0.7923 B( 12-O , 13-H ) :   0.7984 B( 12-O , 14-H ) :   0.8512
B( 15-O , 16-H ) :   0.8422 B( 15-O , 17-H ) :   0.7759 B( 18-O , 19-H ) :   0.8497
B( 18-O , 20-H ) :   0.7596 B( 21-O , 22-H ) :   0.8000 B( 21-O , 23-H ) :   0.7991

MP2 TOTAL ENERGY:     -610.587789102 Eh
FINAL SINGLE POINT ENERGY      -610.587789101692

DIPOLE MOMENT
-------------
                                X             Y             Z
Electronic contribution:      0.15037      -0.14250      -0.23145
Nuclear contribution   :      0.00102      -1.02005      -1.46039
                        -----------------------------------------
Total Dipole Moment    :      0.15139      -1.16255      -1.69184
                        -----------------------------------------
Magnitude (a.u.)       :      2.05834
Magnitude (Debye)      :      5.23188

Rotational constants in cm-1:     0.031681     0.014019     0.012488
Rotational constants in MHz :   949.768397   420.281940   374.389526

                             ****ORCA TERMINATED NORMALLY****
TOTAL RUN TIME: 0 days 0 hours 2 minutes 37 seconds 243 msec
