                         Program Version 4.2.0 -  RELEASE  -
|  1> ! MP2 def2-TZVP EnGrad TightSCF FrozenCore
|  2>
|  3> %pal
|  4>     nprocs 12
|  5> end
|  6>
|  7> %maxcore 8000
|  8>
|  9> %scf
| 10>     ConvForced true
| 11> end
| 12>
| 13> *xyz 0 1
| 14> O    -0.918465212     -2.0595711291     0.0417557098
| 15> H     0.0296206648    -2.0682384323     0.3423126004
| 16> C    -0.9145564992    -2.0722878512    -1.3837973063
| 17> H    -1.935780337     -1.8702456404    -1.7210119793
| 18> H    -0.6133584438    -3.0560284287    -1.7692426184
| 19> H    -0.2410180276    -1.3105396924    -1.7989833099
| 20> O    -1.5904580889     0.2991527504     1.1357559713
| 21> H    -1.4142811365    -0.5913948235     0.7253463409
| 22> C    -2.8571838923     0.285290409      1.7746926653
| 23> H    -2.9985430193     1.2569566876     2.2568685722
| 24> H    -2.9097157889    -0.4950460582     2.545936609
| 25> H    -3.6810245394     0.1272019495     1.0629814993
| 26> O     1.6916706573     0.4123612666    -1.0451517317
| 27> H     0.9880217148     1.0734571485    -0.8088998678
| 28> C     2.8661641602     1.1100789449    -1.4335525734
| 29> H     3.6341001533     0.365698482     -1.6622614962
| 30> H     3.2427396046     1.7673662564    -0.636576569
| 31> H     2.695333006      1.717342447     -2.3336470264
| 32> O     1.6384002583    -1.6056629856     0.7802245417
| 33> H     1.7610775042    -0.8737078363     0.1238941259
| 34> C     1.6323605765    -1.0214363039     2.0809020784
| 35> H     1.5550497921    -1.8367339002     2.8059040856
| 36> H     0.7811934948    -0.3413324586     2.2225516956
| 37> H     2.5648310169    -0.4742930677     2.2766671839
| 38> O    -0.3093618636     2.1109075097    -0.3888434134
| 39> H    -0.825086791      1.5476581663     0.243713008
| 40> C    -1.1594390194     2.412428003     -1.4874393478
| 41> H    -0.5782858831     2.9949749735    -2.2079495944
| 42> H    -2.0211931165     3.0169088544    -1.1722859107
| 43> H    -1.5320378316     1.508056866     -1.9900790681
| 44> *
| 45>
| 46>                          ****END OF INPUT****

CARTESIAN COORDINATES (ANGSTROEM)
---------------------------------
  O     -0.918465   -2.059571    0.041756
  H      0.029621   -2.068238    0.342313
  C     -0.914556   -2.072288   -1.383797
  H     -1.935780   -1.870246   -1.721012
  H     -0.613358   -3.056028   -1.769243
  H     -0.241018   -1.310540   -1.798983
  O     -1.590458    0.299153    1.135756
  H     -1.414281   -0.591395    0.725346
  C     -2.857184    0.285290    1.774693
  H     -2.998543    1.256957    2.256869
  H     -2.909716   -0.495046    2.545937
  H     -3.681025    0.127202    1.062981
  O      1.691671    0.412361   -1.045152
  H      0.988022    1.073457   -0.808900
  C      2.866164    1.110079   -1.433553
  H      3.634100    0.365698   -1.662261
  H      3.242740    1.767366   -0.636577
  H      2.695333    1.717342   -2.333647
  O      1.638400   -1.605663    0.780225
  H      1.761078   -0.873708    0.123894
  C      1.632361   -1.021436    2.080902
  H      1.555050   -1.836734    2.805904
  H      0.781193   -0.341332    2.222552
  H      2.564831   -0.474293    2.276667
  O     -0.309362    2.110908   -0.388843
  H     -0.825087    1.547658    0.243713
  C     -1.159439    2.412428   -1.487439
  H     -0.578286    2.994975   -2.207950
  H     -2.021193    3.016909   -1.172286
  H     -1.532038    1.508057   -1.990079

 Total Charge           Charge          ....    0
 Multiplicity           Mult            ....    1
 Number of Electrons    NEL             ....   90
 Basis Dimension        Dim             ....  430

ORBITAL ENERGIES
----------------

  NO   OCC          E(Eh)            E(eV)
   0   2.0000     -20.552436      -559.2602
   1   2.0000     -20.550876      -559.2178
   2   2.0000     -20.550791      -559.2154
   3   2.0000     -20.547844      -559.1353
   4   2.0000     -20.544537      -559.0453
   5   2.0000     -11.273204      -306.7595
   6   2.0000     -11.272110      -306.7297
   7   2.0000     -11.271204      -306.7050
   8   2.0000     -11.265144      -306.5401
   9   2.0000     -11.261930      -306.4527
  10   2.0000      -1.367545       -37.2128
  11   2.0000      -1.356020       -36.8992
  12   2.0000      -1.353851       -36.8402
  13   2.0000      -1.338731       -36.4287
  14   2.0000      -1.333865       -36.2963
  15   2.0000      -0.928551       -25.2671
  16   2.0000      -0.923933       -25.1415
  17   2.0000      -0.918659       -24.9980
  18   2.0000      -0.915244       -24.9050
  19   2.0000      -0.910988       -24.7892
  20   2.0000      -0.714383       -19.4394
  21   2.0000      -0.705940       -19.2096
  22   2.0000      -0.689940       -18.7742
  23   2.0000      -0.685725       -18.6595
  24   2.0000      -0.680979       -18.5304
  25   2.0000      -0.620948       -16.8969
  26   2.0000      -0.618626       -16.8337
  27   2.0000      -0.614415       -16.7191
  28   2.0000      -0.612369       -16.6634
  29   2.0000      -0.605906       -16.4875
  30   2.0000      -0.598290       -16.2803
  31   2.0000      -0.594339       -16.1728
  32   2.0000      -0.587820       -15.9954
  33   2.0000      -0.586226       -15.9520
  34   2.0000      -0.582154       -15.8412
  35   2.0000      -0.522587       -14.2203
  36   2.0000      -0.518036       -14.0965
  37   2.0000      -0.497203       -13.5296
  38   2.0000      -0.491569       -13.3763
  39   2.0000      -0.484952       -13.1962
  40   2.0000      -0.451390       -12.2829
  41   2.0000      -0.448175       -12.1955
  42   2.0000      -0.446479       -12.1493
  43   2.0000      -0.442500       -12.0410
  44   2.0000      -0.436497       -11.8777
  45   0.0000       0.125735         3.4214
  46   0.0000       0.146205         3.9784
  47   0.0000       0.156561         4.2602
  48   0.0000       0.169280         4.6063
  49   0.0000       0.182015         4.9529

MULLIKEN ATOMIC CHARGES
-----------------------
   0 O :   -0.555168
   1 H :    0.378602
   2 C :   -0.196341
   3 H :    0.121177
   4 H :    0.124993
   5 H :    0.134074
   6 O :   -0.578084
   7 H :    0.370882
   8 C :   -0.165932
   9 H :    0.126873
  10 H :    0.125082
  11 H :    0.113559
  12 O :   -0.571096
  13 H :    0.374733
  14 C :   -0.173812
  15 H :    0.131895
  16 H :    0.119633
  17 H :    0.116013
  18 O :   -0.557124
  19 H :    0.373199
  20 C :   -0.204591
  21 H :    0.129902
  22 H :    0.134290
  23 H :    0.117876
  24 O :   -0.551192
  25 H :    0.379643
  26 C :   -0.187745
  27 H :    0.129212
  28 H :    0.121861
  29 H :    0.117586
Sum of atomic charges:   -0.0000000

LOEWDIN ATOMIC CHARGES
----------------------
   0 O :   -0.088112
   1 H :    0.168044
   2 C :   -0.387953
   3 H :    0.105919
   4 H :    0.103792
   5 H :    0.099567
   6 O :   -0.090416
   7 H :    0.165021
   8 C :   -0.384436
   9 H :    0.108617
  10 H :    0.104328
  11 H :    0.098686
  12 O :   -0.090404
  13 H :    0.165207
  14 C :   -0.384391
  15 H :    0.109788
  16 H :    0.100278
  17 H :    0.101566
  18 O :   -0.089851
  19 H :    0.164807
  20 C :   -0.389963
  21 H :    0.109045
  22 H :    0.098628
  23 H :    0.101334
  24 O :   -0.085221
  25 H :    0.165828
  26 C :   -0.389335
  27 H :    0.108737
  28 H :    0.102946
  29 H :    0.097943

  Mayer bond orders larger than 0.100000
B(  0-O ,  1-H ) :   0.7497 B(  0-O ,  2-C ) :   0.8822 B(  0-O ,  7-H ) :   0.1345
B(  1-H , 18-O ) :   0.1073 B(  2-C ,  3-H ) :   0.9410 B(  2-C ,  4-H ) :   0.9409
B(  2-C ,  5-H ) :   0.9288 B(  6-O ,  7-H ) :   0.7210 B(  6-O ,  8-C ) :   0.8879
B(  8-C ,  9-H ) :   0.9419 B(  8-C , 10-H ) :   0.9400 B(  8-C , 11-H ) :   0.9377
B( 12-O , 13-H ) :   0.7281 B( 12-O , 14-C ) :   0.8936 B( 13-H , 24-O ) :   0.1226
B( 14-C , 15-H ) :   0.9422 B( 14-C , 16-H ) :   0.9391 B( 14-C , 17-H ) :   0.9369
B( 18-O , 19-H ) :   0.7591 B( 18-O , 20-C ) :   0.8810 B( 20-C , 21-H ) :   0.9430
B( 20-C , 22-H ) :   0.9280 B( 20-C , 23-H ) :   0.9394 B( 24-O , 25-H ) :   0.7519
B( 24-O , 26-C ) :   0.8878 B( 26-C , 27-H ) :   0.9428 B( 26-C , 28-H ) :   0.9404
B( 26-C , 29-H ) :   0.9351

MP2 TOTAL ENERGY:     -577.607075466 Eh
FINAL SINGLE POINT ENERGY      -577.607075465865

DIPOLE MOMENT
-------------
                                X             Y             Z
Electronic contribution:      1.21706      -1.97132       1.24797
Nuclear contribution   :     -1.57230       2.57931      -1.56831
                        -----------------------------------------
Total Dipole Moment    :     -0.35525       0.60800      -0.32034
                        -----------------------------------------
Magnitude (a.u.)       :      0.77362
Magnitude (Debye)      :      1.96638

Rotational constants in cm-1:     0.026432     0.023626     0.017599
Rotational constants in MHz :   792.410052   708.277828   527.589873

                             ****ORCA TERMINATED NORMALLY****
TOTAL RUN TIME: 0 days 0 hours 11 minutes 18 seconds 3 msec
