                         Program Version 4.2.0 -  RELEASE  -
|  1> # 12meoh.boyd.etal.mol7,8,10
|  2> ! MP2 def2-TZVP EnGrad TightSCF
|  3>
|  4> %pal
|  5>     nprocs 6
|  6> end
|  7>
|  8> %maxcore 8000
|  9>
| 10> %scf
| 11>     ConvForced true
| 12> end
| 13>
| 14> *xyz 0 1
| 15> O   4.310535586  -1.588322800   0.656128299
| 16> H   3.804372199  -1.630404735  -0.196849819
| 17> C   4.312298137  -2.894980854   1.222112691
| 18> H   4.713177833  -2.819907076   2.237066773
| 19> H   4.957796734  -3.574699304   0.648211180
| 20> H   3.302735989  -3.324433205   1.269756773
| 21> O   3.570084754   2.361662577  -0.202416728
| 22> H   3.393280933   1.755669977   0.560634073
| 23> C   4.368082883   1.644741793  -1.143112807
| 24> H   4.552851717   2.311801738  -1.989632421
| 25> H   3.862427494   0.740851663  -1.508095690
| 26> H   5.333949674   1.357289092  -0.706288100
| 27> O  -5.201143618   0.064582726  -0.172223772
| 28> H  -4.686891530   0.869258890   0.107806143
| 29> C  -6.513192168   0.171391798   0.359883449
| 30> H  -7.049381312  -0.749234190   0.111361174
| 31> H  -7.057741163   1.017801101  -0.081819420
| 32> H  -6.514770575   0.292264928   1.453058834
| 33> *
| 34>
| 35>                          ****END OF INPUT****

CARTESIAN COORDINATES (ANGSTROEM)
---------------------------------
  O      4.310536   -1.588323    0.656128
  H      3.804372   -1.630405   -0.196850
  C      4.312298   -2.894981    1.222113
  H      4.713178   -2.819907    2.237067
  H      4.957797   -3.574699    0.648211
  H      3.302736   -3.324433    1.269757
  O      3.570085    2.361663   -0.202417
  H      3.393281    1.755670    0.560634
  C      4.368083    1.644742   -1.143113
  H      4.552852    2.311802   -1.989632
  H      3.862427    0.740852   -1.508096
  H      5.333950    1.357289   -0.706288
  O     -5.201144    0.064583   -0.172224
  H     -4.686892    0.869259    0.107806
  C     -6.513192    0.171392    0.359883
  H     -7.049381   -0.749234    0.111361
  H     -7.057741    1.017801   -0.081819
  H     -6.514771    0.292265    1.453059

 Total Charge           Charge          ....    0
 Multiplicity           Mult            ....    1
 Number of Electrons    NEL             ....   54
 Basis Dimension        Dim             ....  258

ORBITAL ENERGIES
----------------

  NO   OCC          E(Eh)            E(eV)
   0   2.0000     -20.566785      -559.6507
   1   2.0000     -20.557876      -559.4083
   2   2.0000     -20.549394      -559.1774
   3   2.0000     -11.278209      -306.8957
   4   2.0000     -11.271633      -306.7167
   5   2.0000     -11.265469      -306.5490
   6   2.0000      -1.356236       -36.9051
   7   2.0000      -1.347963       -36.6799
   8   2.0000      -1.338954       -36.4348
   9   2.0000      -0.926761       -25.2184
  10   2.0000      -0.919457       -25.0197
  11   2.0000      -0.913110       -24.8470
  12   2.0000      -0.690457       -18.7883
  13   2.0000      -0.682560       -18.5734
  14   2.0000      -0.674287       -18.3483
  15   2.0000      -0.624337       -16.9891
  16   2.0000      -0.617069       -16.7913
  17   2.0000      -0.610221       -16.6050
  18   2.0000      -0.599122       -16.3029
  19   2.0000      -0.591811       -16.1040
  20   2.0000      -0.582621       -15.8539
  21   2.0000      -0.508975       -13.8499
  22   2.0000      -0.500155       -13.6099
  23   2.0000      -0.494667       -13.4606
  24   2.0000      -0.457451       -12.4479
  25   2.0000      -0.448865       -12.2142
  26   2.0000      -0.442605       -12.0439
  27   0.0000       0.117771         3.2047
  28   0.0000       0.135130         3.6771
  29   0.0000       0.153384         4.1738
  30   0.0000       0.175674         4.7803
  31   0.0000       0.175755         4.7825

MULLIKEN ATOMIC CHARGES
-----------------------
   0 O :   -0.498724
   1 H :    0.324180
   2 C :   -0.180158
   3 H :    0.131618
   4 H :    0.112946
   5 H :    0.114620
   6 O :   -0.504052
   7 H :    0.326441
   8 C :   -0.159380
   9 H :    0.129223
  10 H :    0.082697
  11 H :    0.120588
  12 O :   -0.496986
  13 H :    0.322445
  14 C :   -0.172380
  15 H :    0.128787
  16 H :    0.109133
  17 H :    0.109001
Sum of atomic charges:    0.0000000

LOEWDIN ATOMIC CHARGES
----------------------
   0 O :   -0.111079
   1 H :    0.189014
   2 C :   -0.378584
   3 H :    0.110843
   4 H :    0.096926
   5 H :    0.097239
   6 O :   -0.111373
   7 H :    0.189281
   8 C :   -0.379042
   9 H :    0.108961
  10 H :    0.088553
  11 H :    0.099261
  12 O :   -0.107208
  13 H :    0.191333
  14 C :   -0.384999
  15 H :    0.110281
  16 H :    0.095263
  17 H :    0.095329

  Mayer bond orders larger than 0.100000
B(  0-O ,  1-H ) :   0.8393 B(  0-O ,  2-C ) :   0.9187 B(  2-C ,  3-H ) :   0.9385
B(  2-C ,  4-H ) :   0.9381 B(  2-C ,  5-H ) :   0.9398 B(  6-O ,  7-H ) :   0.8399
B(  6-O ,  8-C ) :   0.9282 B(  8-C ,  9-H ) :   0.9365 B(  8-C , 10-H ) :   0.9400
B(  8-C , 11-H ) :   0.9407 B( 12-O , 13-H ) :   0.8416 B( 12-O , 14-C ) :   0.9273
B( 14-C , 15-H ) :   0.9376 B( 14-C , 16-H ) :   0.9390 B( 14-C , 17-H ) :   0.9385

MP2 TOTAL ENERGY:     -346.522601579 Eh
FINAL SINGLE POINT ENERGY      -346.522601579031

DIPOLE MOMENT
-------------
                                X             Y             Z
Electronic contribution:      0.71752       2.38767      -0.18068
Nuclear contribution   :     -1.00280      -3.11705       0.41644
                        -----------------------------------------
Total Dipole Moment    :     -0.28528      -0.72938       0.23576
                        -----------------------------------------
Magnitude (a.u.)       :      0.81790
Magnitude (Debye)      :      2.07894

Rotational constants in cm-1:     0.046131     0.007766     0.006749
Rotational constants in MHz :  1382.975834   232.833343   202.322723

                             ****ORCA TERMINATED NORMALLY****
TOTAL RUN TIME: 0 days 0 hours 0 minutes 46 seconds 238 msec
