                         Program Version 4.2.0 -  RELEASE  -
|  1> # 12mecn.remya.etal.2.mol3,4,6
|  2> ! MP2 def2-TZVP EnGrad TightSCF
|  3>
|  4> %pal
|  5>     nprocs 6
|  6> end
|  7>
|  8> %maxcore 8000
|  9>
| 10> %scf
| 11>     ConvForced true
| 12> end
| 13>
| 14> *xyz 0 1
| 15> C  -5.181310000   2.853865000  -1.626100000
| 16> H  -5.488260000   3.811434000  -2.053310000
| 17> H  -5.857590000   2.068112000  -1.968630000
| 18> H  -4.170750000   2.611402000  -1.966640000
| 19> C  -5.187260000   2.919160000  -0.181450000
| 20> N  -5.181700000   2.970641000   0.983640000
| 21> C  -1.509690000  -0.693960000  -1.610140000
| 22> H  -1.327010000  -1.692700000  -2.017370000
| 23> H  -0.742170000  -0.000650000  -1.964400000
| 24> H  -2.491920000  -0.334310000  -1.929350000
| 25> C  -1.473570000  -0.748120000  -0.167200000
| 26> N  -1.447490000  -0.793720000   0.998938000
| 27> C   5.300864000  -2.920090000   1.401103000
| 28> H   5.986071000  -2.139770000   1.737487000
| 29> H   5.636642000  -3.888750000   1.778233000
| 30> H   4.307359000  -2.697240000   1.799307000
| 31> C   5.234791000  -2.933140000  -0.043290000
| 32> N   5.170868000  -2.941760000  -1.207750000
| 33> *
| 34>
| 35>                          ****END OF INPUT****

CARTESIAN COORDINATES (ANGSTROEM)
---------------------------------
  C     -5.181310    2.853865   -1.626100
  H     -5.488260    3.811434   -2.053310
  H     -5.857590    2.068112   -1.968630
  H     -4.170750    2.611402   -1.966640
  C     -5.187260    2.919160   -0.181450
  N     -5.181700    2.970641    0.983640
  C     -1.509690   -0.693960   -1.610140
  H     -1.327010   -1.692700   -2.017370
  H     -0.742170   -0.000650   -1.964400
  H     -2.491920   -0.334310   -1.929350
  C     -1.473570   -0.748120   -0.167200
  N     -1.447490   -0.793720    0.998938
  C      5.300864   -2.920090    1.401103
  H      5.986071   -2.139770    1.737487
  H      5.636642   -3.888750    1.778233
  H      4.307359   -2.697240    1.799307
  C      5.234791   -2.933140   -0.043290
  N      5.170868   -2.941760   -1.207750

 Total Charge           Charge          ....    0
 Multiplicity           Mult            ....    1
 Number of Electrons    NEL             ....   66
 Basis Dimension        Dim             ....  333

ORBITAL ENERGIES
----------------

  NO   OCC          E(Eh)            E(eV)
   0   2.0000     -15.574351      -423.7996
   1   2.0000     -15.573736      -423.7829
   2   2.0000     -15.573243      -423.7695
   3   2.0000     -11.288932      -307.1874
   4   2.0000     -11.287715      -307.1543
   5   2.0000     -11.283365      -307.0360
   6   2.0000     -11.280643      -306.9619
   7   2.0000     -11.280464      -306.9570
   8   2.0000     -11.280193      -306.9497
   9   2.0000      -1.215422       -33.0733
  10   2.0000      -1.215132       -33.0654
  11   2.0000      -1.214460       -33.0471
  12   2.0000      -1.047009       -28.4906
  13   2.0000      -1.046323       -28.4719
  14   2.0000      -1.042849       -28.3774
  15   2.0000      -0.704160       -19.1612
  16   2.0000      -0.701027       -19.0759
  17   2.0000      -0.700325       -19.0568
  18   2.0000      -0.637005       -17.3338
  19   2.0000      -0.635345       -17.2886
  20   2.0000      -0.634321       -17.2608
  21   2.0000      -0.633530       -17.2392
  22   2.0000      -0.631607       -17.1869
  23   2.0000      -0.628721       -17.1084
  24   2.0000      -0.556633       -15.1467
  25   2.0000      -0.556279       -15.1371
  26   2.0000      -0.555763       -15.1231
  27   2.0000      -0.459044       -12.4912
  28   2.0000      -0.458562       -12.4781
  29   2.0000      -0.458458       -12.4753
  30   2.0000      -0.457830       -12.4582
  31   2.0000      -0.457639       -12.4530
  32   2.0000      -0.457253       -12.4425
  33   0.0000       0.092425         2.5150
  34   0.0000       0.120796         3.2870
  35   0.0000       0.134414         3.6576
  36   0.0000       0.165242         4.4965
  37   0.0000       0.167356         4.5540

MULLIKEN ATOMIC CHARGES
-----------------------
   0 C :   -0.285964
   1 H :    0.176220
   2 H :    0.172993
   3 H :    0.163854
   4 C :   -0.143659
   5 N :   -0.083477
   6 C :   -0.279351
   7 H :    0.176984
   8 H :    0.174468
   9 H :    0.160966
  10 C :   -0.144182
  11 N :   -0.088845
  12 C :   -0.281107
  13 H :    0.171933
  14 H :    0.172118
  15 H :    0.177217
  16 C :   -0.145364
  17 N :   -0.094800
Sum of atomic charges:   -0.0000000

LOEWDIN ATOMIC CHARGES
----------------------
   0 C :   -0.285654
   1 H :    0.152036
   2 H :    0.151136
   3 H :    0.149634
   4 C :   -0.220000
   5 N :    0.052813
   6 C :   -0.284323
   7 H :    0.153932
   8 H :    0.153106
   9 H :    0.148944
  10 C :   -0.220909
  11 N :    0.049287
  12 C :   -0.283063
  13 H :    0.151746
  14 H :    0.151532
  15 H :    0.154718
  16 C :   -0.218230
  17 N :    0.043294

  Mayer bond orders larger than 0.100000
B(  0-C ,  1-H ) :   0.9156 B(  0-C ,  2-H ) :   0.9179 B(  0-C ,  3-H ) :   0.9196
B(  0-C ,  4-C ) :   0.9010 B(  4-C ,  5-N ) :   2.8311 B(  6-C ,  7-H ) :   0.9154
B(  6-C ,  8-H ) :   0.9168 B(  6-C ,  9-H ) :   0.9197 B(  6-C , 10-C ) :   0.8999
B( 10-C , 11-N ) :   2.8330 B( 12-C , 13-H ) :   0.9165 B( 12-C , 14-H ) :   0.9159
B( 12-C , 15-H ) :   0.9154 B( 12-C , 16-C ) :   0.9024 B( 16-C , 17-N ) :   2.8399

MP2 TOTAL ENERGY:     -397.448985032 Eh
FINAL SINGLE POINT ENERGY      -397.448985031918

DIPOLE MOMENT
-------------
                                X             Y             Z
Electronic contribution:     -0.07560      -0.01511       3.18590
Nuclear contribution   :      0.11465       0.02175      -4.62542
                        -----------------------------------------
Total Dipole Moment    :      0.03905       0.00664      -1.43952
                        -----------------------------------------
Magnitude (a.u.)       :      1.44006
Magnitude (Debye)      :      3.66035

Rotational constants in cm-1:     0.078221     0.005581     0.005395
Rotational constants in MHz :  2345.017526   167.320777   161.728544

                             ****ORCA TERMINATED NORMALLY****
TOTAL RUN TIME: 0 days 0 hours 2 minutes 3 seconds 216 msec
