                         Program Version 4.2.0 -  RELEASE  -
|  1> # 12meoh.boyd.etal.mol0,1,5
|  2> ! MP2 def2-TZVP EnGrad TightSCF
|  3>
|  4> %pal
|  5>     nprocs 6
|  6> end
|  7>
|  8> %maxcore 8000
|  9>
| 10> %scf
| 11>     ConvForced true
| 12> end
| 13>
| 14> *xyz 0 1
| 15> O  -1.776108874  -2.741384797  -1.019308298
| 16> H  -2.520094035  -2.452295987  -0.420778302
| 17> C  -2.174025166  -3.952700964  -1.647004581
| 18> H  -1.359803895  -4.272673416  -2.304149236
| 19> H  -3.075973971  -3.808692420  -2.256751112
| 20> H  -2.370225393  -4.752784761  -0.918966137
| 21> O   0.666045193  -2.600503172   0.138317521
| 22> H  -0.227115049  -2.712051982  -0.281868004
| 23> C   0.490021232  -1.851247678   1.341189459
| 24> H   1.466500502  -1.466176022   1.645844415
| 25> H   0.097564527  -2.488364683   2.146902740
| 26> H  -0.187588112  -1.000787499   1.200739571
| 27> O  -0.662721750   1.449094618  -1.383082065
| 28> H   0.064188300   2.119867608  -1.465650660
| 29> C  -0.353319239   0.341218776  -2.229326771
| 30> H  -1.072358530  -0.454743281  -2.019906495
| 31> H   0.657636746  -0.044472139  -2.042736771
| 32> H  -0.434616607   0.624733901  -3.287793021
| 33> *
| 34>
| 35>                          ****END OF INPUT****

CARTESIAN COORDINATES (ANGSTROEM)
---------------------------------
  O     -1.776109   -2.741385   -1.019308
  H     -2.520094   -2.452296   -0.420778
  C     -2.174025   -3.952701   -1.647005
  H     -1.359804   -4.272673   -2.304149
  H     -3.075974   -3.808692   -2.256751
  H     -2.370225   -4.752785   -0.918966
  O      0.666045   -2.600503    0.138318
  H     -0.227115   -2.712052   -0.281868
  C      0.490021   -1.851248    1.341189
  H      1.466501   -1.466176    1.645844
  H      0.097565   -2.488365    2.146903
  H     -0.187588   -1.000787    1.200740
  O     -0.662722    1.449095   -1.383082
  H      0.064188    2.119868   -1.465651
  C     -0.353319    0.341219   -2.229327
  H     -1.072359   -0.454743   -2.019906
  H      0.657637   -0.044472   -2.042737
  H     -0.434617    0.624734   -3.287793

 Total Charge           Charge          ....    0
 Multiplicity           Mult            ....    1
 Number of Electrons    NEL             ....   54
 Basis Dimension        Dim             ....  258

ORBITAL ENERGIES
----------------

  NO   OCC          E(Eh)            E(eV)
   0   2.0000     -20.592998      -560.3640
   1   2.0000     -20.547749      -559.1327
   2   2.0000     -20.514643      -558.2318
   3   2.0000     -11.291922      -307.2688
   4   2.0000     -11.257001      -306.3186
   5   2.0000     -11.249157      -306.1051
   6   2.0000      -1.385962       -37.7139
   7   2.0000      -1.335718       -36.3467
   8   2.0000      -1.309966       -35.6460
   9   2.0000      -0.943629       -25.6775
  10   2.0000      -0.907035       -24.6817
  11   2.0000      -0.896251       -24.3882
  12   2.0000      -0.717933       -19.5359
  13   2.0000      -0.673079       -18.3154
  14   2.0000      -0.670400       -18.2425
  15   2.0000      -0.638659       -17.3788
  16   2.0000      -0.612422       -16.6649
  17   2.0000      -0.604999       -16.4629
  18   2.0000      -0.589793       -16.0491
  19   2.0000      -0.578477       -15.7411
  20   2.0000      -0.561168       -15.2702
  21   2.0000      -0.530233       -14.4284
  22   2.0000      -0.492761       -13.4087
  23   2.0000      -0.483607       -13.1596
  24   2.0000      -0.459501       -12.5037
  25   2.0000      -0.439014       -11.9462
  26   2.0000      -0.416855       -11.3432
  27   0.0000       0.113834         3.0976
  28   0.0000       0.141938         3.8623
  29   0.0000       0.157674         4.2905
  30   0.0000       0.184471         5.0197
  31   0.0000       0.191024         5.1980

MULLIKEN ATOMIC CHARGES
-----------------------
   0 O :   -0.521629
   1 H :    0.345654
   2 C :   -0.184363
   3 H :    0.148687
   4 H :    0.126614
   5 H :    0.126635
   6 O :   -0.531750
   7 H :    0.355543
   8 C :   -0.189688
   9 H :    0.120432
  10 H :    0.099975
  11 H :    0.115372
  12 O :   -0.510196
  13 H :    0.320650
  14 C :   -0.181330
  15 H :    0.130001
  16 H :    0.126352
  17 H :    0.103038
Sum of atomic charges:   -0.0000000

LOEWDIN ATOMIC CHARGES
----------------------
   0 O :   -0.071641
   1 H :    0.202651
   2 C :   -0.374340
   3 H :    0.117547
   4 H :    0.104132
   5 H :    0.103039
   6 O :   -0.125319
   7 H :    0.159327
   8 C :   -0.393410
   9 H :    0.105470
  10 H :    0.090777
  11 H :    0.094495
  12 O :   -0.117247
  13 H :    0.187496
  14 C :   -0.383267
  15 H :    0.106738
  16 H :    0.100677
  17 H :    0.092875

  Mayer bond orders larger than 0.100000
B(  0-O ,  1-H ) :   0.8241 B(  0-O ,  2-C ) :   0.8685 B(  2-C ,  3-H ) :   0.9400
B(  2-C ,  4-H ) :   0.9346 B(  2-C ,  5-H ) :   0.9343 B(  6-O ,  7-H ) :   0.7951
B(  6-O ,  8-C ) :   0.9335 B(  8-C ,  9-H ) :   0.9434 B(  8-C , 10-H ) :   0.9383
B(  8-C , 11-H ) :   0.9371 B( 12-O , 13-H ) :   0.8436 B( 12-O , 14-C ) :   0.9118
B( 14-C , 15-H ) :   0.9362 B( 14-C , 16-H ) :   0.9420 B( 14-C , 17-H ) :   0.9343

MP2 TOTAL ENERGY:     -346.531681555 Eh
FINAL SINGLE POINT ENERGY      -346.531681555159

DIPOLE MOMENT
-------------
                                X             Y             Z
Electronic contribution:      0.20375       1.67400       0.11028
Nuclear contribution   :     -1.15977      -1.99365      -0.39489
                        -----------------------------------------
Total Dipole Moment    :     -0.95602      -0.31964      -0.28461
                        -----------------------------------------
Magnitude (a.u.)       :      1.04745
Magnitude (Debye)      :      2.66241

Rotational constants in cm-1:     0.073071     0.042331     0.029396
Rotational constants in MHz :  2190.612325  1269.058102   881.255790

                             ****ORCA TERMINATED NORMALLY****
TOTAL RUN TIME: 0 days 0 hours 1 minutes 28 seconds 711 msec
