                         Program Version 4.2.0 -  RELEASE  -
|  1> # 12h2o.su.etal.mol0,1,2,3,5,6,7,9,10,11
|  2> ! MP2 def2-TZVP EnGrad TightSCF
|  3>
|  4> %pal
|  5>     nprocs 6
|  6> end
|  7>
|  8> %maxcore 8000
|  9>
| 10> %scf
| 11>     ConvForced true
| 12> end
| 13>
| 14> *xyz 0 1
| 15> O   1.794470000   0.923410000   2.768350000
| 16> H   2.338250000   1.359750000   3.430940000
| 17> H   0.879480000   1.303000000   2.865760000
| 18> O  -1.794470000  -0.923410000   2.768350000
| 19> H  -2.338250000  -1.359750000   3.430940000
| 20> H  -0.879480000  -1.303000000   2.865760000
| 21> O   0.923410000  -1.794470000  -2.768350000
| 22> H   1.359750000  -2.338250000  -3.430940000
| 23> H   1.303000000  -0.879480000  -2.865760000
| 24> O  -1.752130000  -0.741530000  -2.896280000
| 25> H  -2.036450000  -0.920500000  -1.984040000
| 26> H  -0.921210000  -1.242140000  -2.984230000
| 27> O   0.885520000  -1.737840000   0.052730000
| 28> H   1.284090000  -0.839590000   0.017130000
| 29> H   1.032320000  -2.090180000  -0.841890000
| 30> O   1.737840000   0.885520000  -0.052730000
| 31> H   2.090180000   1.032320000   0.841890000
| 32> H   0.839590000   1.284090000  -0.017130000
| 33> O  -1.737840000  -0.885520000  -0.052730000
| 34> H  -2.090180000  -1.032320000   0.841890000
| 35> H  -0.839590000  -1.284090000  -0.017130000
| 36> O   0.741530000  -1.752130000   2.896280000
| 37> H   0.920500000  -2.036450000   1.984040000
| 38> H   1.242140000  -0.921210000   2.984230000
| 39> O  -0.923410000   1.794470000  -2.768350000
| 40> H  -1.359750000   2.338250000  -3.430940000
| 41> H  -1.303000000   0.879480000  -2.865760000
| 42> O  -0.741530000   1.752130000   2.896280000
| 43> H  -0.920500000   2.036450000   1.984040000
| 44> H  -1.242140000   0.921210000   2.984230000
| 45> *
| 46>
| 47>                          ****END OF INPUT****

CARTESIAN COORDINATES (ANGSTROEM)
---------------------------------
  O      1.794470    0.923410    2.768350
  H      2.338250    1.359750    3.430940
  H      0.879480    1.303000    2.865760
  O     -1.794470   -0.923410    2.768350
  H     -2.338250   -1.359750    3.430940
  H     -0.879480   -1.303000    2.865760
  O      0.923410   -1.794470   -2.768350
  H      1.359750   -2.338250   -3.430940
  H      1.303000   -0.879480   -2.865760
  O     -1.752130   -0.741530   -2.896280
  H     -2.036450   -0.920500   -1.984040
  H     -0.921210   -1.242140   -2.984230
  O      0.885520   -1.737840    0.052730
  H      1.284090   -0.839590    0.017130
  H      1.032320   -2.090180   -0.841890
  O      1.737840    0.885520   -0.052730
  H      2.090180    1.032320    0.841890
  H      0.839590    1.284090   -0.017130
  O     -1.737840   -0.885520   -0.052730
  H     -2.090180   -1.032320    0.841890
  H     -0.839590   -1.284090   -0.017130
  O      0.741530   -1.752130    2.896280
  H      0.920500   -2.036450    1.984040
  H      1.242140   -0.921210    2.984230
  O     -0.923410    1.794470   -2.768350
  H     -1.359750    2.338250   -3.430940
  H     -1.303000    0.879480   -2.865760
  O     -0.741530    1.752130    2.896280
  H     -0.920500    2.036450    1.984040
  H     -1.242140    0.921210    2.984230

 Total Charge           Charge          ....    0
 Multiplicity           Mult            ....    1
 Number of Electrons    NEL             ....  100
 Basis Dimension        Dim             ....  430

ORBITAL ENERGIES
----------------

  NO   OCC          E(Eh)            E(eV)
   0   2.0000     -20.611909      -560.8785
   1   2.0000     -20.582260      -560.0718
   2   2.0000     -20.578418      -559.9672
   3   2.0000     -20.571195      -559.7707
   4   2.0000     -20.565783      -559.6234
   5   2.0000     -20.558572      -559.4272
   6   2.0000     -20.555354      -559.3396
   7   2.0000     -20.533952      -558.7572
   8   2.0000     -20.522557      -558.4472
   9   2.0000     -20.506635      -558.0139
  10   2.0000      -1.392573       -37.8938
  11   2.0000      -1.380182       -37.5567
  12   2.0000      -1.363512       -37.1030
  13   2.0000      -1.360283       -37.0152
  14   2.0000      -1.355059       -36.8730
  15   2.0000      -1.344817       -36.5943
  16   2.0000      -1.336426       -36.3660
  17   2.0000      -1.328241       -36.1433
  18   2.0000      -1.306397       -35.5489
  19   2.0000      -1.287456       -35.0335
  20   2.0000      -0.757745       -20.6193
  21   2.0000      -0.744407       -20.2563
  22   2.0000      -0.736989       -20.0545
  23   2.0000      -0.725706       -19.7475
  24   2.0000      -0.724671       -19.7193
  25   2.0000      -0.717420       -19.5220
  26   2.0000      -0.709915       -19.3178
  27   2.0000      -0.697468       -18.9791
  28   2.0000      -0.685557       -18.6550
  29   2.0000      -0.673125       -18.3167
  30   2.0000      -0.644851       -17.5473
  31   2.0000      -0.635043       -17.2804
  32   2.0000      -0.612769       -16.6743
  33   2.0000      -0.609258       -16.5788
  34   2.0000      -0.593841       -16.1592
  35   2.0000      -0.592176       -16.1139
  36   2.0000      -0.581389       -15.8204
  37   2.0000      -0.570690       -15.5293
  38   2.0000      -0.552238       -15.0272
  39   2.0000      -0.543185       -14.7808
  40   2.0000      -0.526638       -14.3306
  41   2.0000      -0.525675       -14.3043
  42   2.0000      -0.524495       -14.2722
  43   2.0000      -0.513632       -13.9766
  44   2.0000      -0.510316       -13.8864
  45   2.0000      -0.502553       -13.6752
  46   2.0000      -0.499725       -13.5982
  47   2.0000      -0.477642       -12.9973
  48   2.0000      -0.471942       -12.8422
  49   2.0000      -0.457515       -12.4496
  50   0.0000       0.098378         2.6770
  51   0.0000       0.113034         3.0758
  52   0.0000       0.143163         3.8957
  53   0.0000       0.148375         4.0375
  54   0.0000       0.171494         4.6666

MULLIKEN ATOMIC CHARGES
-----------------------
   0 O :   -0.760657
   1 H :    0.355747
   2 H :    0.382653
   3 O :   -0.758598
   4 H :    0.350251
   5 H :    0.385721
   6 O :   -0.725146
   7 H :    0.364983
   8 H :    0.386872
   9 O :   -0.719083
  10 H :    0.388113
  11 H :    0.355405
  12 O :   -0.753138
  13 H :    0.364195
  14 H :    0.379253
  15 O :   -0.705985
  16 H :    0.379809
  17 H :    0.355675
  18 O :   -0.752882
  19 H :    0.366468
  20 H :    0.347156
  21 O :   -0.724958
  22 H :    0.389525
  23 H :    0.368332
  24 O :   -0.745704
  25 H :    0.321095
  26 H :    0.371340
  27 O :   -0.708998
  28 H :    0.357754
  29 H :    0.384803
Sum of atomic charges:   -0.0000000

LOEWDIN ATOMIC CHARGES
----------------------
   0 O :   -0.316138
   1 H :    0.161543
   2 H :    0.145736
   3 O :   -0.315962
   4 H :    0.158989
   5 H :    0.146431
   6 O :   -0.288317
   7 H :    0.168501
   8 H :    0.197923
   9 O :   -0.290266
  10 H :    0.157644
  11 H :    0.144846
  12 O :   -0.303388
  13 H :    0.142686
  14 H :    0.151382
  15 O :   -0.297033
  16 H :    0.152366
  17 H :    0.174681
  18 O :   -0.350521
  19 H :    0.146597
  20 H :    0.136865
  21 O :   -0.286939
  22 H :    0.156791
  23 H :    0.148965
  24 O :   -0.380277
  25 H :    0.146653
  26 H :    0.142115
  27 O :   -0.279284
  28 H :    0.171033
  29 H :    0.156382

  Mayer bond orders larger than 0.100000
B(  0-O ,  1-H ) :   0.8376 B(  0-O ,  2-H ) :   0.7315 B(  2-H , 27-O ) :   0.1155
B(  3-O ,  4-H ) :   0.8404 B(  3-O ,  5-H ) :   0.7251 B(  5-H , 21-O ) :   0.1239
B(  6-O ,  7-H ) :   0.8320 B(  6-O ,  8-H ) :   0.8076 B(  9-O , 10-H ) :   0.7939
B(  9-O , 11-H ) :   0.8215 B(  9-O , 26-H ) :   0.1073 B( 12-O , 13-H ) :   0.7585
B( 12-O , 14-H ) :   0.8061 B( 13-H , 15-O ) :   0.1071 B( 15-O , 16-H ) :   0.7984
B( 15-O , 17-H ) :   0.8289 B( 18-O , 19-H ) :   0.8142 B( 18-O , 20-H ) :   0.7813
B( 21-O , 22-H ) :   0.7980 B( 21-O , 23-H ) :   0.8009 B( 24-O , 25-H ) :   0.8623
B( 24-O , 26-H ) :   0.7634 B( 27-O , 28-H ) :   0.8359 B( 27-O , 29-H ) :   0.7808

MP2 TOTAL ENERGY:     -763.259100815 Eh
FINAL SINGLE POINT ENERGY      -763.259100814948

DIPOLE MOMENT
-------------
                                X             Y             Z
Electronic contribution:      0.22378      -0.21263       0.21868
Nuclear contribution   :      0.90891      -0.11126       0.08817
                        -----------------------------------------
Total Dipole Moment    :      1.13269      -0.32389       0.30685
                        -----------------------------------------
Magnitude (a.u.)       :      1.21740
Magnitude (Debye)      :      3.09438

Rotational constants in cm-1:     0.025042     0.012519     0.012390
Rotational constants in MHz :   750.732643   375.318702   371.444863

                             ****ORCA TERMINATED NORMALLY****
TOTAL RUN TIME: 0 days 0 hours 7 minutes 21 seconds 173 msec
