                         Program Version 4.2.0 -  RELEASE  -
|  1> # 12h2o.su.etal.mol0,3,4,5,6,10,11
|  2> ! MP2 def2-TZVP EnGrad TightSCF
|  3>
|  4> %pal
|  5>     nprocs 6
|  6> end
|  7>
|  8> %maxcore 8000
|  9>
| 10> %scf
| 11>     ConvForced true
| 12> end
| 13>
| 14> *xyz 0 1
| 15> O   1.794470000   0.923410000   2.768350000
| 16> H   2.338250000   1.359750000   3.430940000
| 17> H   0.879480000   1.303000000   2.865760000
| 18> O  -1.752130000  -0.741530000  -2.896280000
| 19> H  -2.036450000  -0.920500000  -1.984040000
| 20> H  -0.921210000  -1.242140000  -2.984230000
| 21> O  -0.885520000   1.737840000   0.052730000
| 22> H  -1.032320000   2.090180000  -0.841890000
| 23> H  -1.284090000   0.839590000   0.017130000
| 24> O   0.885520000  -1.737840000   0.052730000
| 25> H   1.284090000  -0.839590000   0.017130000
| 26> H   1.032320000  -2.090180000  -0.841890000
| 27> O   1.737840000   0.885520000  -0.052730000
| 28> H   2.090180000   1.032320000   0.841890000
| 29> H   0.839590000   1.284090000  -0.017130000
| 30> O  -0.923410000   1.794470000  -2.768350000
| 31> H  -1.359750000   2.338250000  -3.430940000
| 32> H  -1.303000000   0.879480000  -2.865760000
| 33> O  -0.741530000   1.752130000   2.896280000
| 34> H  -0.920500000   2.036450000   1.984040000
| 35> H  -1.242140000   0.921210000   2.984230000
| 36> *
| 37>
| 38>                          ****END OF INPUT****

CARTESIAN COORDINATES (ANGSTROEM)
---------------------------------
  O      1.794470    0.923410    2.768350
  H      2.338250    1.359750    3.430940
  H      0.879480    1.303000    2.865760
  O     -1.752130   -0.741530   -2.896280
  H     -2.036450   -0.920500   -1.984040
  H     -0.921210   -1.242140   -2.984230
  O     -0.885520    1.737840    0.052730
  H     -1.032320    2.090180   -0.841890
  H     -1.284090    0.839590    0.017130
  O      0.885520   -1.737840    0.052730
  H      1.284090   -0.839590    0.017130
  H      1.032320   -2.090180   -0.841890
  O      1.737840    0.885520   -0.052730
  H      2.090180    1.032320    0.841890
  H      0.839590    1.284090   -0.017130
  O     -0.923410    1.794470   -2.768350
  H     -1.359750    2.338250   -3.430940
  H     -1.303000    0.879480   -2.865760
  O     -0.741530    1.752130    2.896280
  H     -0.920500    2.036450    1.984040
  H     -1.242140    0.921210    2.984230

 Total Charge           Charge          ....    0
 Multiplicity           Mult            ....    1
 Number of Electrons    NEL             ....   70
 Basis Dimension        Dim             ....  301

ORBITAL ENERGIES
----------------

  NO   OCC          E(Eh)            E(eV)
   0   2.0000     -20.619536      -561.0861
   1   2.0000     -20.594663      -560.4093
   2   2.0000     -20.578328      -559.9648
   3   2.0000     -20.562853      -559.5437
   4   2.0000     -20.532060      -558.7058
   5   2.0000     -20.525556      -558.5288
   6   2.0000     -20.520290      -558.3855
   7   2.0000      -1.405125       -38.2354
   8   2.0000      -1.383420       -37.6448
   9   2.0000      -1.365753       -37.1640
  10   2.0000      -1.345201       -36.6048
  11   2.0000      -1.320444       -35.9311
  12   2.0000      -1.312043       -35.7025
  13   2.0000      -1.298748       -35.3407
  14   2.0000      -0.762186       -20.7401
  15   2.0000      -0.746578       -20.3154
  16   2.0000      -0.731926       -19.9167
  17   2.0000      -0.725452       -19.7405
  18   2.0000      -0.700993       -19.0750
  19   2.0000      -0.685683       -18.6584
  20   2.0000      -0.677158       -18.4264
  21   2.0000      -0.647565       -17.6211
  22   2.0000      -0.632863       -17.2211
  23   2.0000      -0.602252       -16.3881
  24   2.0000      -0.588968       -16.0266
  25   2.0000      -0.582195       -15.8423
  26   2.0000      -0.558337       -15.1931
  27   2.0000      -0.549410       -14.9502
  28   2.0000      -0.543968       -14.8021
  29   2.0000      -0.520579       -14.1657
  30   2.0000      -0.512527       -13.9466
  31   2.0000      -0.510860       -13.9012
  32   2.0000      -0.480191       -13.0666
  33   2.0000      -0.475402       -12.9363
  34   2.0000      -0.465820       -12.6756
  35   0.0000       0.075701         2.0599
  36   0.0000       0.121371         3.3027
  37   0.0000       0.141569         3.8523
  38   0.0000       0.147138         4.0038
  39   0.0000       0.171976         4.6797

MULLIKEN ATOMIC CHARGES
-----------------------
   0 O :   -0.733494
   1 H :    0.332954
   2 H :    0.370340
   3 O :   -0.675959
   4 H :    0.355709
   5 H :    0.367172
   6 O :   -0.728524
   7 H :    0.395866
   8 H :    0.336633
   9 O :   -0.723255
  10 H :    0.367610
  11 H :    0.308409
  12 O :   -0.732091
  13 H :    0.376042
  14 H :    0.358948
  15 O :   -0.733302
  16 H :    0.343117
  17 H :    0.370848
  18 O :   -0.693853
  19 H :    0.387843
  20 H :    0.348988
Sum of atomic charges:   -0.0000000

LOEWDIN ATOMIC CHARGES
----------------------
   0 O :   -0.339460
   1 H :    0.152105
   2 H :    0.144083
   3 O :   -0.265362
   4 H :    0.171606
   5 H :    0.179849
   6 O :   -0.284609
   7 H :    0.160112
   8 H :    0.167181
   9 O :   -0.365943
  10 H :    0.143556
  11 H :    0.147492
  12 O :   -0.317975
  13 H :    0.149664
  14 H :    0.138436
  15 O :   -0.335987
  16 H :    0.157380
  17 H :    0.143771
  18 O :   -0.275270
  19 H :    0.157746
  20 H :    0.171623

  Mayer bond orders larger than 0.100000
B(  0-O ,  1-H ) :   0.8527 B(  0-O ,  2-H ) :   0.7645 B(  3-O ,  4-H ) :   0.8371
B(  3-O ,  5-H ) :   0.8290 B(  6-O ,  7-H ) :   0.7759 B(  6-O ,  8-H ) :   0.8385
B(  9-O , 10-H ) :   0.7684 B(  9-O , 11-H ) :   0.8674 B( 10-H , 12-O ) :   0.1128
B( 12-O , 13-H ) :   0.7998 B( 12-O , 14-H ) :   0.7995 B( 15-O , 16-H ) :   0.8474
B( 15-O , 17-H ) :   0.7678 B( 18-O , 19-H ) :   0.8006 B( 18-O , 20-H ) :   0.8424

MP2 TOTAL ENERGY:     -534.253410764 Eh
FINAL SINGLE POINT ENERGY      -534.253410764392

DIPOLE MOMENT
-------------
                                X             Y             Z
Electronic contribution:     -0.19776       0.22686      -0.08408
Nuclear contribution   :     -1.55321      -0.19651      -0.77428
                        -----------------------------------------
Total Dipole Moment    :     -1.75097       0.03034      -0.85836
                        -----------------------------------------
Magnitude (a.u.)       :      1.95028
Magnitude (Debye)      :      4.95723

Rotational constants in cm-1:     0.049371     0.021655     0.018542
Rotational constants in MHz :  1480.099429   649.195511   555.884987

                             ****ORCA TERMINATED NORMALLY****
TOTAL RUN TIME: 0 days 0 hours 2 minutes 1 seconds 298 msec
