                         Program Version 4.2.0 -  RELEASE  -
|  1> # 12meoh.boyd.etal.mol1,4,11
|  2> ! MP2 def2-TZVP EnGrad TightSCF
|  3>
|  4> %pal
|  5>     nprocs 6
|  6> end
|  7>
|  8> %maxcore 8000
|  9>
| 10> %scf
| 11>     ConvForced true
| 12> end
| 13>
| 14> *xyz 0 1
| 15> O   0.666045193  -2.600503172   0.138317521
| 16> H  -0.227115049  -2.712051982  -0.281868004
| 17> C   0.490021232  -1.851247678   1.341189459
| 18> H   1.466500502  -1.466176022   1.645844415
| 19> H   0.097564527  -2.488364683   2.146902740
| 20> H  -0.187588112  -1.000787499   1.200739571
| 21> O  -1.358578914   1.232360421   1.189721000
| 22> H  -1.058250183   1.216459361   0.238591307
| 23> C  -0.389763452   1.957872567   1.943072362
| 24> H  -0.747220771   2.012806578   2.975200343
| 25> H  -0.260410585   2.982763209   1.565366540
| 26> H   0.585220638   1.453754179   1.934070793
| 27> O   3.252955559   0.588596242   1.858934315
| 28> H   3.621209177  -0.251605199   1.476063364
| 29> C   4.040824528   0.944288422   2.989639460
| 30> H   3.670521436   1.902573549   3.363847391
| 31> H   5.103749934   1.055868619   2.734277559
| 32> H   3.948540682   0.200279590   3.792908518
| 33> *
| 34>
| 35>                          ****END OF INPUT****

CARTESIAN COORDINATES (ANGSTROEM)
---------------------------------
  O      0.666045   -2.600503    0.138318
  H     -0.227115   -2.712052   -0.281868
  C      0.490021   -1.851248    1.341189
  H      1.466501   -1.466176    1.645844
  H      0.097565   -2.488365    2.146903
  H     -0.187588   -1.000787    1.200740
  O     -1.358579    1.232360    1.189721
  H     -1.058250    1.216459    0.238591
  C     -0.389763    1.957873    1.943072
  H     -0.747221    2.012807    2.975200
  H     -0.260411    2.982763    1.565367
  H      0.585221    1.453754    1.934071
  O      3.252956    0.588596    1.858934
  H      3.621209   -0.251605    1.476063
  C      4.040825    0.944288    2.989639
  H      3.670521    1.902574    3.363847
  H      5.103750    1.055869    2.734278
  H      3.948541    0.200280    3.792909

 Total Charge           Charge          ....    0
 Multiplicity           Mult            ....    1
 Number of Electrons    NEL             ....   54
 Basis Dimension        Dim             ....  258

ORBITAL ENERGIES
----------------

  NO   OCC          E(Eh)            E(eV)
   0   2.0000     -20.565678      -559.6205
   1   2.0000     -20.556082      -559.3594
   2   2.0000     -20.549702      -559.1858
   3   2.0000     -11.277722      -306.8824
   4   2.0000     -11.263788      -306.5032
   5   2.0000     -11.258049      -306.3471
   6   2.0000      -1.354946       -36.8700
   7   2.0000      -1.343625       -36.5619
   8   2.0000      -1.337800       -36.4034
   9   2.0000      -0.926435       -25.2096
  10   2.0000      -0.913409       -24.8551
  11   2.0000      -0.908829       -24.7305
  12   2.0000      -0.689737       -18.7687
  13   2.0000      -0.676985       -18.4217
  14   2.0000      -0.672371       -18.2961
  15   2.0000      -0.624624       -16.9969
  16   2.0000      -0.616597       -16.7784
  17   2.0000      -0.601912       -16.3788
  18   2.0000      -0.598739       -16.2925
  19   2.0000      -0.586594       -15.9620
  20   2.0000      -0.580362       -15.7925
  21   2.0000      -0.508372       -13.8335
  22   2.0000      -0.496138       -13.5006
  23   2.0000      -0.491692       -13.3796
  24   2.0000      -0.456109       -12.4114
  25   2.0000      -0.446830       -12.1589
  26   2.0000      -0.437379       -11.9017
  27   0.0000       0.124113         3.3773
  28   0.0000       0.135806         3.6955
  29   0.0000       0.156651         4.2627
  30   0.0000       0.168393         4.5822
  31   0.0000       0.184403         5.0179

MULLIKEN ATOMIC CHARGES
-----------------------
   0 O :   -0.508588
   1 H :    0.322173
   2 C :   -0.150153
   3 H :    0.090512
   4 H :    0.102773
   5 H :    0.109851
   6 O :   -0.501602
   7 H :    0.326168
   8 C :   -0.192728
   9 H :    0.122957
  10 H :    0.114063
  11 H :    0.143714
  12 O :   -0.488918
  13 H :    0.329503
  14 C :   -0.179095
  15 H :    0.129386
  16 H :    0.116288
  17 H :    0.113696
Sum of atomic charges:   -0.0000000

LOEWDIN ATOMIC CHARGES
----------------------
   0 O :   -0.117014
   1 H :    0.188769
   2 C :   -0.383026
   3 H :    0.101145
   4 H :    0.095031
   5 H :    0.100161
   6 O :   -0.110942
   7 H :    0.191371
   8 C :   -0.384515
   9 H :    0.108841
  10 H :    0.097188
  11 H :    0.101175
  12 O :   -0.103344
  13 H :    0.191319
  14 C :   -0.381095
  15 H :    0.110108
  16 H :    0.098162
  17 H :    0.096666

  Mayer bond orders larger than 0.100000
B(  0-O ,  1-H ) :   0.8438 B(  0-O ,  2-C ) :   0.9186 B(  2-C ,  3-H ) :   0.9312
B(  2-C ,  4-H ) :   0.9380 B(  2-C ,  5-H ) :   0.9400 B(  6-O ,  7-H ) :   0.8393
B(  6-O ,  8-C ) :   0.8994 B(  8-C ,  9-H ) :   0.9360 B(  8-C , 10-H ) :   0.9413
B(  8-C , 11-H ) :   0.9325 B( 12-O , 13-H ) :   0.8342 B( 12-O , 14-C ) :   0.9241
B( 14-C , 15-H ) :   0.9391 B( 14-C , 16-H ) :   0.9370 B( 14-C , 17-H ) :   0.9361

MP2 TOTAL ENERGY:     -346.525595334 Eh
FINAL SINGLE POINT ENERGY      -346.525595334250

DIPOLE MOMENT
-------------
                                X             Y             Z
Electronic contribution:     -1.93145      -2.07710      -3.66669
Nuclear contribution   :      2.49797       2.35230       3.87315
                        -----------------------------------------
Total Dipole Moment    :      0.56652       0.27519       0.20646
                        -----------------------------------------
Magnitude (a.u.)       :      0.66280
Magnitude (Debye)      :      1.68470

Rotational constants in cm-1:     0.053965     0.040001     0.024163
Rotational constants in MHz :  1617.844138  1199.190904   724.383150

                             ****ORCA TERMINATED NORMALLY****
TOTAL RUN TIME: 0 days 0 hours 1 minutes 18 seconds 11 msec
