                         Program Version 3.0.3 - RELEASE   -
|  1> ! B3LYP Def2-TZVP def2-TZVP/J RIJCOSX TightSCF Grid4 D3BJ COSMO
|  2>
|  3> %pal nprocs 12 end
|  4>
|  5> %scf
|  6>         maxiter 400
|  7> end
|  8>
|  9> %cosmo
| 10>         SMD true
| 11>         solvent "WATER"
| 12> end
| 13>
| 14> * xyz  0  1
| 15> O  -2.139998	0.312027	-2.678987
| 16> H  -2.568298	0.770610	-1.916829
| 17> H  -1.745855	-0.481022	-2.254472
| 18> O  -0.049032	-1.850089	2.794084
| 19> H  -0.713404	-1.229400	2.429791
| 20> H  0.129011	-2.454769	2.033581
| 21> O  1.381859	0.099161	-1.270139
| 22> H  1.106687	0.792721	-1.918335
| 23> H  0.580309	-0.490161	-1.236035
| 24> O  -0.709406	3.232604	-0.360013
| 25> H  -0.382261	2.913149	-1.236080
| 26> H  -0.107906	2.794005	0.276502
| 27> O  -2.821956	1.633012	-0.397088
| 28> H  -2.104798	2.330897	-0.358498
| 29> H  -3.653807	2.108206	-0.246405
| 30> O  -0.003648	1.901945	-2.641912
| 31> H  0.177029	2.291161	-3.511253
| 32> H  -0.813907	1.324292	-2.766225
| 33> O  -1.417331	0.006623	1.247710
| 34> H  -0.600710	0.574340	1.252467
| 35> H  -2.107540	0.575733	0.828888
| 36> O  0.593211	-3.134347	0.479796
| 37> H  1.487711	-2.704613	0.340646
| 38> H  0.749772	-4.090287	0.436545
| 39> O  2.828175	-1.718699	0.174191
| 40> H  2.527281	-1.035816	-0.461945
| 41> H  2.787652	-1.263240	1.048694
| 42> O  2.244625	-0.481515	2.535711
| 43> H  1.422637	-1.001760	2.765792
| 44> H  2.774124	-0.441934	3.346623
| 45> O  -0.826060	-1.389773	-0.966021
| 46> H  -0.415822	-2.217589	-0.616199
| 47> H  -1.113419	-0.924268	-0.134643
| 48> O  0.889210	1.376795	1.058789
| 49> H  1.152424	0.953354	0.197558
| 50> H  1.461008	0.921793	1.721114
| 51> **                         ****END OF INPUT****

CARTESIAN COORDINATES (ANGSTROEM)
---------------------------------
  O     -2.139998    0.312027   -2.678987
  H     -2.568298    0.770610   -1.916829
  H     -1.745855   -0.481022   -2.254472
  O     -0.049032   -1.850089    2.794084
  H     -0.713404   -1.229400    2.429791
  H      0.129011   -2.454769    2.033581
  O      1.381859    0.099161   -1.270139
  H      1.106687    0.792721   -1.918335
  H      0.580309   -0.490161   -1.236035
  O     -0.709406    3.232604   -0.360013
  H     -0.382261    2.913149   -1.236080
  H     -0.107906    2.794005    0.276502
  O     -2.821956    1.633012   -0.397088
  H     -2.104798    2.330897   -0.358498
  H     -3.653807    2.108206   -0.246405
  O     -0.003648    1.901945   -2.641912
  H      0.177029    2.291161   -3.511253
  H     -0.813907    1.324292   -2.766225
  O     -1.417331    0.006623    1.247710
  H     -0.600710    0.574340    1.252467
  H     -2.107540    0.575733    0.828888
  O      0.593211   -3.134347    0.479796
  H      1.487711   -2.704613    0.340646
  H      0.749772   -4.090287    0.436545
  O      2.828175   -1.718699    0.174191
  H      2.527281   -1.035816   -0.461945
  H      2.787652   -1.263240    1.048694
  O      2.244625   -0.481515    2.535711
  H      1.422637   -1.001760    2.765792
  H      2.774124   -0.441934    3.346623
  O     -0.826060   -1.389773   -0.966021
  H     -0.415822   -2.217589   -0.616199
  H     -1.113419   -0.924268   -0.134643
  O      0.889210    1.376795    1.058789
  H      1.152424    0.953354    0.197558
  H      1.461008    0.921793    1.721114

 Total Charge           Charge          ....    0
 Multiplicity           Mult            ....    1
 Number of Electrons    NEL             ....  120
 Basis Dimension        Dim             ....  516

ORBITAL ENERGIES
----------------

  NO   OCC          E(Eh)            E(eV)
   0   2.0000     -19.131885      -520.6051
   1   2.0000     -19.131673      -520.5993
   2   2.0000     -19.131526      -520.5953
   3   2.0000     -19.131349      -520.5905
   4   2.0000     -19.124333      -520.3995
   5   2.0000     -19.123870      -520.3870
   6   2.0000     -19.122987      -520.3629
   7   2.0000     -19.121658      -520.3268
   8   2.0000     -19.120759      -520.3023
   9   2.0000     -19.119813      -520.2766
  10   2.0000     -19.119693      -520.2733
  11   2.0000     -19.119673      -520.2727
  12   2.0000      -1.035062       -28.1655
  13   2.0000      -1.025519       -27.9058
  14   2.0000      -1.019185       -27.7334
  15   2.0000      -1.017234       -27.6803
  16   2.0000      -1.014535       -27.6069
  17   2.0000      -1.009083       -27.4585
  18   2.0000      -1.005482       -27.3605
  19   2.0000      -0.999090       -27.1866
  20   2.0000      -0.997989       -27.1567
  21   2.0000      -0.995436       -27.0872
  22   2.0000      -0.991628       -26.9836
  23   2.0000      -0.979959       -26.6660
  24   2.0000      -0.545214       -14.8360
  25   2.0000      -0.541265       -14.7286
  26   2.0000      -0.540218       -14.7001
  27   2.0000      -0.537997       -14.6396
  28   2.0000      -0.537090       -14.6150
  29   2.0000      -0.529670       -14.4130
  30   2.0000      -0.529184       -14.3998
  31   2.0000      -0.526872       -14.3369
  32   2.0000      -0.520290       -14.1578
  33   2.0000      -0.516999       -14.0683
  34   2.0000      -0.514524       -14.0009
  35   2.0000      -0.512471       -13.9450
  36   2.0000      -0.465742       -12.6735
  37   2.0000      -0.440021       -11.9736
  38   2.0000      -0.435165       -11.8415
  39   2.0000      -0.427016       -11.6197
  40   2.0000      -0.413838       -11.2611
  41   2.0000      -0.408866       -11.1258
  42   2.0000      -0.405078       -11.0227
  43   2.0000      -0.401410       -10.9229
  44   2.0000      -0.384565       -10.4646
  45   2.0000      -0.381083       -10.3698
  46   2.0000      -0.377954       -10.2846
  47   2.0000      -0.356186        -9.6923
  48   2.0000      -0.329937        -8.9780
  49   2.0000      -0.329487        -8.9658
  50   2.0000      -0.326392        -8.8816
  51   2.0000      -0.325164        -8.8481
  52   2.0000      -0.324492        -8.8299
  53   2.0000      -0.322844        -8.7850
  54   2.0000      -0.322165        -8.7666
  55   2.0000      -0.319047        -8.6817
  56   2.0000      -0.318239        -8.6597
  57   2.0000      -0.317835        -8.6487
  58   2.0000      -0.316808        -8.6208
  59   2.0000      -0.314864        -8.5679
  60   0.0000       0.014736         0.4010
  61   0.0000       0.040547         1.1033
  62   0.0000       0.058610         1.5949
  63   0.0000       0.059559         1.6207
  64   0.0000       0.091849         2.4994

MULLIKEN ATOMIC CHARGES
-----------------------
   0 O :   -0.742468
   1 H :    0.371052
   2 H :    0.383131
   3 O :   -0.748285
   4 H :    0.380603
   5 H :    0.369748
   6 O :   -0.769814
   7 H :    0.380662
   8 H :    0.360486
   9 O :   -0.739998
  10 H :    0.372545
  11 H :    0.381690
  12 O :   -0.743555
  13 H :    0.374362
  14 H :    0.384351
  15 O :   -0.742786
  16 H :    0.385178
  17 H :    0.370879
  18 O :   -0.767452
  19 H :    0.365764
  20 H :    0.376559
  21 O :   -0.742214
  22 H :    0.373638
  23 H :    0.384753
  24 O :   -0.748939
  25 H :    0.383127
  26 H :    0.372589
  27 O :   -0.744111
  28 H :    0.374657
  29 H :    0.384490
  30 O :   -0.763178
  31 H :    0.378913
  32 H :    0.366466
  33 O :   -0.765734
  34 H :    0.366900
  35 H :    0.375991
Sum of atomic charges:    0.0000000

LOEWDIN ATOMIC CHARGES
----------------------
   0 O :   -0.316549
   1 H :    0.142094
   2 H :    0.148185
   3 O :   -0.319093
   4 H :    0.148427
   5 H :    0.141170
   6 O :   -0.307860
   7 H :    0.142291
   8 H :    0.132879
   9 O :   -0.308550
  10 H :    0.144888
  11 H :    0.152176
  12 O :   -0.279046
  13 H :    0.143519
  14 H :    0.184001
  15 O :   -0.274359
  16 H :    0.184022
  17 H :    0.145147
  18 O :   -0.305345
  19 H :    0.133856
  20 H :    0.143822
  21 O :   -0.275862
  22 H :    0.145084
  23 H :    0.183810
  24 O :   -0.314250
  25 H :    0.145405
  26 H :    0.141742
  27 O :   -0.283312
  28 H :    0.147172
  29 H :    0.183921
  30 O :   -0.301428
  31 H :    0.144553
  32 H :    0.133962
  33 O :   -0.309283
  34 H :    0.135887
  35 H :    0.146924

  Mayer bond orders larger than 0.1
B(  0-O ,  1-H ) :   0.8075 B(  0-O ,  2-H ) :   0.8226 B(  0-O , 17-H ) :   0.1525
B(  1-H , 12-O ) :   0.1042 B(  3-O ,  4-H ) :   0.8268 B(  3-O ,  5-H ) :   0.8028
B(  3-O , 28-H ) :   0.1362 B(  5-H , 21-O ) :   0.1124 B(  6-O ,  7-H ) :   0.7910
B(  6-O ,  8-H ) :   0.7689 B(  6-O , 34-H ) :   0.1344 B(  7-H , 15-O ) :   0.1132
B(  8-H , 30-O ) :   0.1431 B(  9-O , 10-H ) :   0.8056 B(  9-O , 11-H ) :   0.8302
B(  9-O , 13-H ) :   0.1427 B( 10-H , 15-O ) :   0.1039 B( 12-O , 13-H ) :   0.7584
B( 12-O , 14-H ) :   0.8534 B( 12-O , 20-H ) :   0.1116 B( 15-O , 16-H ) :   0.8525
B( 15-O , 17-H ) :   0.7552 B( 18-O , 19-H ) :   0.7718 B( 18-O , 20-H ) :   0.7963
B( 18-O , 32-H ) :   0.1405 B( 19-H , 33-O ) :   0.1342 B( 21-O , 22-H ) :   0.7574
B( 21-O , 23-H ) :   0.8529 B( 21-O , 31-H ) :   0.1089 B( 22-H , 24-O ) :   0.1458
B( 24-O , 25-H ) :   0.8187 B( 24-O , 26-H ) :   0.8046 B( 26-H , 27-O ) :   0.1053
B( 27-O , 28-H ) :   0.7647 B( 27-O , 29-H ) :   0.8531 B( 27-O , 35-H ) :   0.1032
B( 30-O , 31-H ) :   0.7960 B( 30-O , 32-H ) :   0.7708 B( 33-O , 34-H ) :   0.7733
B( 33-O , 35-H ) :   0.8032

Dispersion correction           -0.043117570
FINAL SINGLE POINT ENERGY      -917.379157544089

DIPOLE MOMENT
-------------
                                X             Y             Z
Electronic contribution:     -0.01993       0.04669      -0.04051
Nuclear contribution   :      0.07376       0.03322       0.05747
                        -----------------------------------------
Total Dipole Moment    :      0.05384       0.07991       0.01696
                        -----------------------------------------
Magnitude (a.u.)       :      0.09784
Magnitude (Debye)      :      0.24868

                             ****ORCA TERMINATED NORMALLY****
TOTAL RUN TIME: 0 days 0 hours 1 minutes 28 seconds 885 msec
