                         Program Version 3.0.3 - RELEASE   -
|  1> ! wB97X-D3 MA-Def2-TZVP def2-TZVP/J RIJCOSX TightSCF Grid4
|  2>
|  3> %pal nprocs 1 end
|  4>
|  5> %scf
|  6>         maxiter 400
|  7> end
|  8>
|  9> %cosmo
| 10>         SMD true
| 11>         solvent "WATER"
| 12> end
| 13>
| 14> * xyz  0  1
| 15> O  -2.139998	0.312027	-2.678987
| 16> H  -2.568298	0.770610	-1.916829
| 17> H  -1.745855	-0.481022	-2.254472
| 18> O  -0.049032	-1.850089	2.794084
| 19> H  -0.713404	-1.229400	2.429791
| 20> H  0.129011	-2.454769	2.033581
| 21> O  1.381859	0.099161	-1.270139
| 22> H  1.106687	0.792721	-1.918335
| 23> H  0.580309	-0.490161	-1.236035
| 24> O  -0.709406	3.232604	-0.360013
| 25> H  -0.382261	2.913149	-1.236080
| 26> H  -0.107906	2.794005	0.276502
| 27> O  -2.821956	1.633012	-0.397088
| 28> H  -2.104798	2.330897	-0.358498
| 29> H  -3.653807	2.108206	-0.246405
| 30> O  -0.003648	1.901945	-2.641912
| 31> H  0.177029	2.291161	-3.511253
| 32> H  -0.813907	1.324292	-2.766225
| 33> O  -1.417331	0.006623	1.247710
| 34> H  -0.600710	0.574340	1.252467
| 35> H  -2.107540	0.575733	0.828888
| 36> O  0.593211	-3.134347	0.479796
| 37> H  1.487711	-2.704613	0.340646
| 38> H  0.749772	-4.090287	0.436545
| 39> O  2.828175	-1.718699	0.174191
| 40> H  2.527281	-1.035816	-0.461945
| 41> H  2.787652	-1.263240	1.048694
| 42> O  2.244625	-0.481515	2.535711
| 43> H  1.422637	-1.001760	2.765792
| 44> H  2.774124	-0.441934	3.346623
| 45> O  -0.826060	-1.389773	-0.966021
| 46> H  -0.415822	-2.217589	-0.616199
| 47> H  -1.113419	-0.924268	-0.134643
| 48> O  0.889210	1.376795	1.058789
| 49> H  1.152424	0.953354	0.197558
| 50> H  1.461008	0.921793	1.721114
| 51> **                         ****END OF INPUT****

CARTESIAN COORDINATES (ANGSTROEM)
---------------------------------
  O     -2.139998    0.312027   -2.678987
  H     -2.568298    0.770610   -1.916829
  H     -1.745855   -0.481022   -2.254472
  O     -0.049032   -1.850089    2.794084
  H     -0.713404   -1.229400    2.429791
  H      0.129011   -2.454769    2.033581
  O      1.381859    0.099161   -1.270139
  H      1.106687    0.792721   -1.918335
  H      0.580309   -0.490161   -1.236035
  O     -0.709406    3.232604   -0.360013
  H     -0.382261    2.913149   -1.236080
  H     -0.107906    2.794005    0.276502
  O     -2.821956    1.633012   -0.397088
  H     -2.104798    2.330897   -0.358498
  H     -3.653807    2.108206   -0.246405
  O     -0.003648    1.901945   -2.641912
  H      0.177029    2.291161   -3.511253
  H     -0.813907    1.324292   -2.766225
  O     -1.417331    0.006623    1.247710
  H     -0.600710    0.574340    1.252467
  H     -2.107540    0.575733    0.828888
  O      0.593211   -3.134347    0.479796
  H      1.487711   -2.704613    0.340646
  H      0.749772   -4.090287    0.436545
  O      2.828175   -1.718699    0.174191
  H      2.527281   -1.035816   -0.461945
  H      2.787652   -1.263240    1.048694
  O      2.244625   -0.481515    2.535711
  H      1.422637   -1.001760    2.765792
  H      2.774124   -0.441934    3.346623
  O     -0.826060   -1.389773   -0.966021
  H     -0.415822   -2.217589   -0.616199
  H     -1.113419   -0.924268   -0.134643
  O      0.889210    1.376795    1.058789
  H      1.152424    0.953354    0.197558
  H      1.461008    0.921793    1.721114

 Total Charge           Charge          ....    0
 Multiplicity           Mult            ....    1
 Number of Electrons    NEL             ....  120
 Basis Dimension        Dim             ....  564
Dispersion correction           -0.022128755
FINAL SINGLE POINT ENERGY      -917.523292164667
                             ****ORCA TERMINATED NORMALLY****
TOTAL RUN TIME: 0 days 0 hours 15 minutes 17 seconds 816 msec

ORBITAL ENERGIES
----------------

  NO   OCC          E(Eh)            E(eV)
   0   2.0000     -19.241970      -523.6006
   1   2.0000     -19.241756      -523.5948
   2   2.0000     -19.241706      -523.5934
   3   2.0000     -19.241406      -523.5853
   4   2.0000     -19.235401      -523.4219
   5   2.0000     -19.235161      -523.4153
   6   2.0000     -19.234182      -523.3887
   7   2.0000     -19.232830      -523.3519
   8   2.0000     -19.231970      -523.3285
   9   2.0000     -19.230971      -523.3013
  10   2.0000     -19.230897      -523.2993
  11   2.0000     -19.230833      -523.2976
  12   2.0000      -1.154021       -31.4025
  13   2.0000      -1.143732       -31.1225
  14   2.0000      -1.137310       -30.9478
  15   2.0000      -1.135293       -30.8929
  16   2.0000      -1.132582       -30.8191
  17   2.0000      -1.127092       -30.6697
  18   2.0000      -1.123350       -30.5679
  19   2.0000      -1.116922       -30.3930
  20   2.0000      -1.115767       -30.3616
  21   2.0000      -1.113150       -30.2904
  22   2.0000      -1.109058       -30.1790
  23   2.0000      -1.097317       -29.8595
  24   2.0000      -0.651542       -17.7294
  25   2.0000      -0.647698       -17.6248
  26   2.0000      -0.646503       -17.5922
  27   2.0000      -0.644183       -17.5291
  28   2.0000      -0.643283       -17.5046
  29   2.0000      -0.635390       -17.2898
  30   2.0000      -0.634750       -17.2724
  31   2.0000      -0.632169       -17.2022
  32   2.0000      -0.626362       -17.0442
  33   2.0000      -0.622495       -16.9390
  34   2.0000      -0.619956       -16.8699
  35   2.0000      -0.617704       -16.8086
  36   2.0000      -0.574267       -15.6266
  37   2.0000      -0.545947       -14.8560
  38   2.0000      -0.541396       -14.7321
  39   2.0000      -0.532602       -14.4928
  40   2.0000      -0.518324       -14.1043
  41   2.0000      -0.514065       -13.9884
  42   2.0000      -0.507919       -13.8212
  43   2.0000      -0.504751       -13.7350
  44   2.0000      -0.487010       -13.2522
  45   2.0000      -0.482810       -13.1379
  46   2.0000      -0.480468       -13.0742
  47   2.0000      -0.457166       -12.4401
  48   2.0000      -0.431183       -11.7331
  49   2.0000      -0.430614       -11.7176
  50   2.0000      -0.427045       -11.6205
  51   2.0000      -0.425907       -11.5895
  52   2.0000      -0.425432       -11.5766
  53   2.0000      -0.423851       -11.5336
  54   2.0000      -0.423210       -11.5161
  55   2.0000      -0.419946       -11.4273
  56   2.0000      -0.419429       -11.4132
  57   2.0000      -0.419004       -11.4017
  58   2.0000      -0.417777       -11.3683
  59   2.0000      -0.415717       -11.3122
  60   0.0000       0.063022         1.7149
  61   0.0000       0.082063         2.2330
  62   0.0000       0.094044         2.5591
  63   0.0000       0.095243         2.5917
  64   0.0000       0.110595         3.0094

MULLIKEN ATOMIC CHARGES
-----------------------
   0 O :   -0.804551
   1 H :    0.420927
   2 H :    0.431929
   3 O :   -0.826817
   4 H :    0.431110
   5 H :    0.420143
   6 O :   -0.899751
   7 H :    0.439517
   8 H :    0.414494
   9 O :   -0.811577
  10 H :    0.421512
  11 H :    0.430021
  12 O :   -0.842057
  13 H :    0.423804
  14 H :    0.414664
  15 O :   -0.852315
  16 H :    0.415535
  17 H :    0.423355
  18 O :   -0.916021
  19 H :    0.432419
  20 H :    0.435813
  21 O :   -0.849968
  22 H :    0.426264
  23 H :    0.415470
  24 O :   -0.824952
  25 H :    0.433049
  26 H :    0.426587
  27 O :   -0.856438
  28 H :    0.431015
  29 H :    0.416305
  30 O :   -0.863786
  31 H :    0.429994
  32 H :    0.423337
  33 O :   -0.863267
  34 H :    0.423683
  35 H :    0.430554
Sum of atomic charges:   -0.0000000

LOEWDIN ATOMIC CHARGES
----------------------
   0 O :   -0.403364
   1 H :    0.194262
   2 H :    0.199129
   3 O :   -0.405518
   4 H :    0.199020
   5 H :    0.193070
   6 O :   -0.416718
   7 H :    0.195414
   8 H :    0.188790
   9 O :   -0.394854
  10 H :    0.196585
  11 H :    0.202236
  12 O :   -0.376746
  13 H :    0.193030
  14 H :    0.215453
  15 O :   -0.373237
  16 H :    0.215630
  17 H :    0.195309
  18 O :   -0.414213
  19 H :    0.189601
  20 H :    0.197437
  21 O :   -0.374329
  22 H :    0.195381
  23 H :    0.215328
  24 O :   -0.401416
  25 H :    0.196390
  26 H :    0.193922
  27 O :   -0.380622
  28 H :    0.197220
  29 H :    0.214880
  30 O :   -0.410590
  31 H :    0.197797
  32 H :    0.189826
  33 O :   -0.416030
  34 H :    0.191570
  35 H :    0.200360

  Mayer bond orders larger than 0.1
B(  0-O ,  1-H ) :   0.8215 B(  0-O ,  2-H ) :   0.8253 B(  3-O ,  4-H ) :   0.8268
B(  3-O ,  5-H ) :   0.8159 B(  6-O ,  7-H ) :   0.7965 B(  6-O ,  8-H ) :   0.7965
B(  9-O , 10-H ) :   0.8192 B(  9-O , 11-H ) :   0.8313 B( 12-O , 13-H ) :   0.7797
B( 12-O , 14-H ) :   0.8351 B( 15-O , 16-H ) :   0.8332 B( 15-O , 17-H ) :   0.7746
B( 18-O , 19-H ) :   0.8005 B( 18-O , 20-H ) :   0.8056 B( 21-O , 22-H ) :   0.7800
B( 21-O , 23-H ) :   0.8336 B( 24-O , 25-H ) :   0.8231 B( 24-O , 26-H ) :   0.8191
B( 27-O , 28-H ) :   0.7848 B( 27-O , 29-H ) :   0.8328 B( 30-O , 31-H ) :   0.8004
B( 30-O , 32-H ) :   0.7967 B( 33-O , 34-H ) :   0.8014 B( 33-O , 35-H ) :   0.8071

Dispersion correction           -0.022128755
FINAL SINGLE POINT ENERGY      -917.523292164667

DIPOLE MOMENT
-------------
                                X             Y             Z
Electronic contribution:     -0.01737       0.04895      -0.03764
Nuclear contribution   :      0.07376       0.03322       0.05747
                        -----------------------------------------
Total Dipole Moment    :      0.05640       0.08217       0.01982
                        -----------------------------------------
Magnitude (a.u.)       :      0.10162
Magnitude (Debye)      :      0.25829

                             ****ORCA TERMINATED NORMALLY****
TOTAL RUN TIME: 0 days 0 hours 17 minutes 13 seconds 425 msec
