                         Program Version 3.0.3 - RELEASE   -
|  1> ! B3LYP Def2-TZVP def2-TZVP/J RIJCOSX TightSCF Grid4 D3BJ
|  2>
|  3> %pal nprocs 12 end
|  4>
|  5> %scf
|  6>         maxiter 400
|  7> end
|  8>
|  9> * xyz  0  1
| 10> O  -2.118583	0.386459	-2.688626
| 11> H  -2.607491	0.793235	-1.938260
| 12> H  -1.776044	-0.448405	-2.301940
| 13> O  0.014578	-1.733358	2.768447
| 14> H  -0.715103	-1.169605	2.436971
| 15> H  0.133100	-2.391684	2.047467
| 16> O  1.406582	0.068485	-1.237847
| 17> H  1.185940	0.743440	-1.918009
| 18> H  0.590450	-0.503154	-1.230563
| 19> O  -0.746725	3.103553	-0.317320
| 20> H  -0.371126	2.850719	-1.192012
| 21> H  -0.115695	2.717275	0.326395
| 22> O  -2.878920	1.649433	-0.376965
| 23> H  -2.097144	2.294917	-0.331631
| 24> H  -3.671297	2.176191	-0.205655
| 25> O  0.015508	1.876188	-2.659761
| 26> H  0.136147	2.285650	-3.526962
| 27> H  -0.823811	1.307746	-2.739619
| 28> O  -1.426439	-0.019705	1.205544
| 29> H  -0.611267	0.549566	1.223134
| 30> H  -2.141654	0.554475	0.850803
| 31> O  0.591148	-3.124615	0.448476
| 32> H  1.489032	-2.665363	0.338420
| 33> H  0.772190	-4.073229	0.403611
| 34> O  2.807563	-1.767534	0.209744
| 35> H  2.578408	-1.084315	-0.455169
| 36> H  2.832484	-1.278471	1.061852
| 37> O  2.278001	-0.435482	2.563448
| 38> H  1.420699	-0.943561	2.741661
| 39> H  2.762375	-0.410453	3.398960
| 40> O  -0.841530	-1.377457	-1.019605
| 41> H  -0.460064	-2.222020	-0.689876
| 42> H  -1.135302	-0.929363	-0.180048
| 43> O  0.880108	1.347371	1.054640
| 44> H  1.161936	0.920743	0.199984
| 45> H  1.479515	0.955473	1.727716
| 46> **                         ****END OF INPUT****

CARTESIAN COORDINATES (ANGSTROEM)
---------------------------------
  O     -2.118583    0.386459   -2.688626
  H     -2.607491    0.793235   -1.938260
  H     -1.776044   -0.448405   -2.301940
  O      0.014578   -1.733358    2.768447
  H     -0.715103   -1.169605    2.436971
  H      0.133100   -2.391684    2.047467
  O      1.406582    0.068485   -1.237847
  H      1.185940    0.743440   -1.918009
  H      0.590450   -0.503154   -1.230563
  O     -0.746725    3.103553   -0.317320
  H     -0.371126    2.850719   -1.192012
  H     -0.115695    2.717275    0.326395
  O     -2.878920    1.649433   -0.376965
  H     -2.097144    2.294917   -0.331631
  H     -3.671297    2.176191   -0.205655
  O      0.015508    1.876188   -2.659761
  H      0.136147    2.285650   -3.526962
  H     -0.823811    1.307746   -2.739619
  O     -1.426439   -0.019705    1.205544
  H     -0.611267    0.549566    1.223134
  H     -2.141654    0.554475    0.850803
  O      0.591148   -3.124615    0.448476
  H      1.489032   -2.665363    0.338420
  H      0.772190   -4.073229    0.403611
  O      2.807563   -1.767534    0.209744
  H      2.578408   -1.084315   -0.455169
  H      2.832484   -1.278471    1.061852
  O      2.278001   -0.435482    2.563448
  H      1.420699   -0.943561    2.741661
  H      2.762375   -0.410453    3.398960
  O     -0.841530   -1.377457   -1.019605
  H     -0.460064   -2.222020   -0.689876
  H     -1.135302   -0.929363   -0.180048
  O      0.880108    1.347371    1.054640
  H      1.161936    0.920743    0.199984
  H      1.479515    0.955473    1.727716

 Total Charge           Charge          ....    0
 Multiplicity           Mult            ....    1
 Number of Electrons    NEL             ....  120
 Basis Dimension        Dim             ....  516

ORBITAL ENERGIES
----------------

  NO   OCC          E(Eh)            E(eV)
   0   2.0000     -19.141600      -520.8694
   1   2.0000     -19.141286      -520.8609
   2   2.0000     -19.141109      -520.8561
   3   2.0000     -19.140659      -520.8438
   4   2.0000     -19.126326      -520.4538
   5   2.0000     -19.125681      -520.4362
   6   2.0000     -19.125644      -520.4352
   7   2.0000     -19.124392      -520.4011
   8   2.0000     -19.123812      -520.3854
   9   2.0000     -19.120444      -520.2937
  10   2.0000     -19.120383      -520.2921
  11   2.0000     -19.120294      -520.2897
  12   2.0000      -1.040789       -28.3213
  13   2.0000      -1.033103       -28.1122
  14   2.0000      -1.026927       -27.9441
  15   2.0000      -1.024874       -27.8882
  16   2.0000      -1.020433       -27.7674
  17   2.0000      -1.013957       -27.5912
  18   2.0000      -1.009401       -27.4672
  19   2.0000      -1.002247       -27.2725
  20   2.0000      -1.000920       -27.2364
  21   2.0000      -0.998476       -27.1699
  22   2.0000      -0.995093       -27.0778
  23   2.0000      -0.983916       -26.7737
  24   2.0000      -0.557480       -15.1698
  25   2.0000      -0.553195       -15.0532
  26   2.0000      -0.550474       -14.9792
  27   2.0000      -0.548576       -14.9275
  28   2.0000      -0.542376       -14.7588
  29   2.0000      -0.537649       -14.6302
  30   2.0000      -0.536163       -14.5897
  31   2.0000      -0.532381       -14.4868
  32   2.0000      -0.524666       -14.2769
  33   2.0000      -0.519423       -14.1342
  34   2.0000      -0.518337       -14.1047
  35   2.0000      -0.515227       -14.0200
  36   2.0000      -0.470634       -12.8066
  37   2.0000      -0.447442       -12.1755
  38   2.0000      -0.436806       -11.8861
  39   2.0000      -0.431248       -11.7349
  40   2.0000      -0.414612       -11.2822
  41   2.0000      -0.411118       -11.1871
  42   2.0000      -0.409642       -11.1469
  43   2.0000      -0.407242       -11.0816
  44   2.0000      -0.384539       -10.4638
  45   2.0000      -0.383967       -10.4483
  46   2.0000      -0.376999       -10.2587
  47   2.0000      -0.353917        -9.6306
  48   2.0000      -0.337561        -9.1855
  49   2.0000      -0.336479        -9.1561
  50   2.0000      -0.335113        -9.1189
  51   2.0000      -0.333287        -9.0692
  52   2.0000      -0.326667        -8.8891
  53   2.0000      -0.324497        -8.8300
  54   2.0000      -0.323372        -8.7994
  55   2.0000      -0.318748        -8.6736
  56   2.0000      -0.318093        -8.6558
  57   2.0000      -0.315696        -8.5905
  58   2.0000      -0.315120        -8.5749
  59   2.0000      -0.314193        -8.5496
  60   0.0000       0.000759         0.0207
  61   0.0000       0.018377         0.5001
  62   0.0000       0.031498         0.8571
  63   0.0000       0.031889         0.8677
  64   0.0000       0.072731         1.9791

MULLIKEN ATOMIC CHARGES
-----------------------
   0 O :   -0.674742
   1 H :    0.355554
   2 H :    0.372594
   3 O :   -0.685710
   4 H :    0.372013
   5 H :    0.351063
   6 O :   -0.731599
   7 H :    0.363522
   8 H :    0.346662
   9 O :   -0.682984
  10 H :    0.354532
  11 H :    0.375347
  12 O :   -0.726477
  13 H :    0.368033
  14 H :    0.331488
  15 O :   -0.728300
  16 H :    0.332667
  17 H :    0.362718
  18 O :   -0.734874
  19 H :    0.352521
  20 H :    0.360220
  21 O :   -0.725378
  22 H :    0.365797
  23 H :    0.332263
  24 O :   -0.683970
  25 H :    0.372926
  26 H :    0.357132
  27 O :   -0.724569
  28 H :    0.370401
  29 H :    0.331546
  30 O :   -0.731693
  31 H :    0.361962
  32 H :    0.359842
  33 O :   -0.738045
  34 H :    0.355671
  35 H :    0.361869
Sum of atomic charges:   -0.0000000

LOEWDIN ATOMIC CHARGES
----------------------
   0 O :   -0.269189
   1 H :    0.141008
   2 H :    0.149531
   3 O :   -0.275561
   4 H :    0.148915
   5 H :    0.140575
   6 O :   -0.290494
   7 H :    0.141776
   8 H :    0.132090
   9 O :   -0.266976
  10 H :    0.142005
  11 H :    0.149687
  12 O :   -0.298453
  13 H :    0.134912
  14 H :    0.157138
  15 O :   -0.298435
  16 H :    0.157204
  17 H :    0.138726
  18 O :   -0.287611
  19 H :    0.131253
  20 H :    0.140602
  21 O :   -0.297114
  22 H :    0.139196
  23 H :    0.157291
  24 O :   -0.270809
  25 H :    0.147420
  26 H :    0.140800
  27 O :   -0.298575
  28 H :    0.141210
  29 H :    0.157653
  30 O :   -0.291009
  31 H :    0.142232
  32 H :    0.132414
  33 O :   -0.294202
  34 H :    0.132176
  35 H :    0.142619

  Mayer bond orders larger than 0.1
B(  0-O ,  1-H ) :   0.8306 B(  0-O ,  2-H ) :   0.8331 B(  0-O , 17-H ) :   0.1995
B(  3-O ,  4-H ) :   0.8313 B(  3-O ,  5-H ) :   0.8298 B(  3-O , 28-H ) :   0.1727
B(  6-O ,  7-H ) :   0.8191 B(  6-O ,  8-H ) :   0.7721 B(  6-O , 34-H ) :   0.1452
B(  8-H , 30-O ) :   0.1542 B(  9-O , 10-H ) :   0.8271 B(  9-O , 11-H ) :   0.8302
B(  9-O , 13-H ) :   0.1816 B( 12-O , 13-H ) :   0.7285 B( 12-O , 14-H ) :   0.8908
B( 12-O , 20-H ) :   0.1021 B( 15-O , 16-H ) :   0.8904 B( 15-O , 17-H ) :   0.7223
B( 18-O , 19-H ) :   0.7760 B( 18-O , 20-H ) :   0.8166 B( 18-O , 32-H ) :   0.1446
B( 19-H , 33-O ) :   0.1398 B( 21-O , 22-H ) :   0.7291 B( 21-O , 23-H ) :   0.8908
B( 22-H , 24-O ) :   0.1862 B( 24-O , 25-H ) :   0.8295 B( 24-O , 26-H ) :   0.8284
B( 27-O , 28-H ) :   0.7363 B( 27-O , 29-H ) :   0.8906 B( 30-O , 31-H ) :   0.8205
B( 30-O , 32-H ) :   0.7736 B( 33-O , 34-H ) :   0.7734 B( 33-O , 35-H ) :   0.8190

Dispersion correction           -0.043249879
FINAL SINGLE POINT ENERGY      -917.343859887411

DIPOLE MOMENT
-------------
                                X             Y             Z
Electronic contribution:     -0.01048      -0.00179      -0.03920
Nuclear contribution   :      0.04469       0.06919       0.12226
                        -----------------------------------------
Total Dipole Moment    :      0.03421       0.06740       0.08305
                        -----------------------------------------
Magnitude (a.u.)       :      0.11230
Magnitude (Debye)      :      0.28545

                             ****ORCA TERMINATED NORMALLY****
TOTAL RUN TIME: 0 days 0 hours 1 minutes 25 seconds 577 msec
