                         Program Version 3.0.3 - RELEASE   -
|  1> ! wB97X-D3 Def2-TZVP def2-TZVP/J RIJCOSX TightSCF Grid4
|  2>
|  3> %pal nprocs 12 end
|  4>
|  5> %scf
|  6>         maxiter 400
|  7> end
|  8>
|  9> * xyz  0  1
| 10> O  -2.118583	0.386459	-2.688626
| 11> H  -2.607491	0.793235	-1.938260
| 12> H  -1.776044	-0.448405	-2.301940
| 13> O  0.014578	-1.733358	2.768447
| 14> H  -0.715103	-1.169605	2.436971
| 15> H  0.133100	-2.391684	2.047467
| 16> O  1.406582	0.068485	-1.237847
| 17> H  1.185940	0.743440	-1.918009
| 18> H  0.590450	-0.503154	-1.230563
| 19> O  -0.746725	3.103553	-0.317320
| 20> H  -0.371126	2.850719	-1.192012
| 21> H  -0.115695	2.717275	0.326395
| 22> O  -2.878920	1.649433	-0.376965
| 23> H  -2.097144	2.294917	-0.331631
| 24> H  -3.671297	2.176191	-0.205655
| 25> O  0.015508	1.876188	-2.659761
| 26> H  0.136147	2.285650	-3.526962
| 27> H  -0.823811	1.307746	-2.739619
| 28> O  -1.426439	-0.019705	1.205544
| 29> H  -0.611267	0.549566	1.223134
| 30> H  -2.141654	0.554475	0.850803
| 31> O  0.591148	-3.124615	0.448476
| 32> H  1.489032	-2.665363	0.338420
| 33> H  0.772190	-4.073229	0.403611
| 34> O  2.807563	-1.767534	0.209744
| 35> H  2.578408	-1.084315	-0.455169
| 36> H  2.832484	-1.278471	1.061852
| 37> O  2.278001	-0.435482	2.563448
| 38> H  1.420699	-0.943561	2.741661
| 39> H  2.762375	-0.410453	3.398960
| 40> O  -0.841530	-1.377457	-1.019605
| 41> H  -0.460064	-2.222020	-0.689876
| 42> H  -1.135302	-0.929363	-0.180048
| 43> O  0.880108	1.347371	1.054640
| 44> H  1.161936	0.920743	0.199984
| 45> H  1.479515	0.955473	1.727716
| 46> **                         ****END OF INPUT****

CARTESIAN COORDINATES (ANGSTROEM)
---------------------------------
  O     -2.118583    0.386459   -2.688626
  H     -2.607491    0.793235   -1.938260
  H     -1.776044   -0.448405   -2.301940
  O      0.014578   -1.733358    2.768447
  H     -0.715103   -1.169605    2.436971
  H      0.133100   -2.391684    2.047467
  O      1.406582    0.068485   -1.237847
  H      1.185940    0.743440   -1.918009
  H      0.590450   -0.503154   -1.230563
  O     -0.746725    3.103553   -0.317320
  H     -0.371126    2.850719   -1.192012
  H     -0.115695    2.717275    0.326395
  O     -2.878920    1.649433   -0.376965
  H     -2.097144    2.294917   -0.331631
  H     -3.671297    2.176191   -0.205655
  O      0.015508    1.876188   -2.659761
  H      0.136147    2.285650   -3.526962
  H     -0.823811    1.307746   -2.739619
  O     -1.426439   -0.019705    1.205544
  H     -0.611267    0.549566    1.223134
  H     -2.141654    0.554475    0.850803
  O      0.591148   -3.124615    0.448476
  H      1.489032   -2.665363    0.338420
  H      0.772190   -4.073229    0.403611
  O      2.807563   -1.767534    0.209744
  H      2.578408   -1.084315   -0.455169
  H      2.832484   -1.278471    1.061852
  O      2.278001   -0.435482    2.563448
  H      1.420699   -0.943561    2.741661
  H      2.762375   -0.410453    3.398960
  O     -0.841530   -1.377457   -1.019605
  H     -0.460064   -2.222020   -0.689876
  H     -1.135302   -0.929363   -0.180048
  O      0.880108    1.347371    1.054640
  H      1.161936    0.920743    0.199984
  H      1.479515    0.955473    1.727716

 Total Charge           Charge          ....    0
 Multiplicity           Mult            ....    1
 Number of Electrons    NEL             ....  120
 Basis Dimension        Dim             ....  516

ORBITAL ENERGIES
----------------

  NO   OCC          E(Eh)            E(eV)
   0   2.0000     -19.249070      -523.7938
   1   2.0000     -19.248856      -523.7880
   2   2.0000     -19.248693      -523.7836
   3   2.0000     -19.248157      -523.7690
   4   2.0000     -19.234696      -523.4027
   5   2.0000     -19.234095      -523.3863
   6   2.0000     -19.234005      -523.3839
   7   2.0000     -19.232302      -523.3375
   8   2.0000     -19.232101      -523.3321
   9   2.0000     -19.228274      -523.2279
  10   2.0000     -19.228227      -523.2266
  11   2.0000     -19.227898      -523.2177
  12   2.0000      -1.157436       -31.4954
  13   2.0000      -1.149125       -31.2693
  14   2.0000      -1.142814       -31.0976
  15   2.0000      -1.140630       -31.0381
  16   2.0000      -1.136290       -30.9200
  17   2.0000      -1.129835       -30.7444
  18   2.0000      -1.125075       -30.6148
  19   2.0000      -1.117797       -30.4168
  20   2.0000      -1.116361       -30.3777
  21   2.0000      -1.113827       -30.3088
  22   2.0000      -1.110222       -30.2107
  23   2.0000      -1.098990       -29.9050
  24   2.0000      -0.661668       -18.0049
  25   2.0000      -0.656940       -17.8763
  26   2.0000      -0.654214       -17.8021
  27   2.0000      -0.651978       -17.7412
  28   2.0000      -0.647114       -17.6089
  29   2.0000      -0.641627       -17.4596
  30   2.0000      -0.640240       -17.4218
  31   2.0000      -0.636287       -17.3143
  32   2.0000      -0.628609       -17.1053
  33   2.0000      -0.622573       -16.9411
  34   2.0000      -0.621476       -16.9112
  35   2.0000      -0.618008       -16.8169
  36   2.0000      -0.576813       -15.6959
  37   2.0000      -0.550944       -14.9919
  38   2.0000      -0.540555       -14.7093
  39   2.0000      -0.534086       -14.5332
  40   2.0000      -0.516828       -14.0636
  41   2.0000      -0.511545       -13.9199
  42   2.0000      -0.511095       -13.9076
  43   2.0000      -0.509641       -13.8680
  44   2.0000      -0.485240       -13.2041
  45   2.0000      -0.483530       -13.1575
  46   2.0000      -0.477593       -12.9960
  47   2.0000      -0.452307       -12.3079
  48   2.0000      -0.436446       -11.8763
  49   2.0000      -0.435197       -11.8423
  50   2.0000      -0.433564       -11.7979
  51   2.0000      -0.431743       -11.7483
  52   2.0000      -0.425582       -11.5807
  53   2.0000      -0.423392       -11.5211
  54   2.0000      -0.422261       -11.4903
  55   2.0000      -0.417730       -11.3670
  56   2.0000      -0.416807       -11.3419
  57   2.0000      -0.414398       -11.2763
  58   2.0000      -0.413955       -11.2643
  59   2.0000      -0.412508       -11.2249
  60   0.0000       0.082843         2.2543
  61   0.0000       0.104893         2.8543
  62   0.0000       0.119941         3.2638
  63   0.0000       0.120324         3.2742
  64   0.0000       0.158377         4.3097

MULLIKEN ATOMIC CHARGES
-----------------------
   0 O :   -0.686489
   1 H :    0.363018
   2 H :    0.382888
   3 O :   -0.698141
   4 H :    0.383447
   5 H :    0.357486
   6 O :   -0.745662
   7 H :    0.378775
   8 H :    0.344442
   9 O :   -0.695600
  10 H :    0.361403
  11 H :    0.386643
  12 O :   -0.754594
  13 H :    0.370469
  14 H :    0.352088
  15 O :   -0.756431
  16 H :    0.353626
  17 H :    0.364593
  18 O :   -0.748413
  19 H :    0.350584
  20 H :    0.374267
  21 O :   -0.752775
  22 H :    0.367470
  23 H :    0.353111
  24 O :   -0.695933
  25 H :    0.383432
  26 H :    0.364442
  27 O :   -0.752499
  28 H :    0.372897
  29 H :    0.352284
  30 O :   -0.746077
  31 H :    0.376825
  32 H :    0.359389
  33 O :   -0.752475
  34 H :    0.354901
  35 H :    0.376611
Sum of atomic charges:   -0.0000000

LOEWDIN ATOMIC CHARGES
----------------------
   0 O :   -0.270982
   1 H :    0.142167
   2 H :    0.150849
   3 O :   -0.277157
   4 H :    0.150392
   5 H :    0.141711
   6 O :   -0.293635
   7 H :    0.144147
   8 H :    0.132801
   9 O :   -0.268617
  10 H :    0.143191
  11 H :    0.151080
  12 O :   -0.303257
  13 H :    0.135658
  14 H :    0.160223
  15 O :   -0.303197
  16 H :    0.160372
  17 H :    0.139588
  18 O :   -0.290643
  19 H :    0.131856
  20 H :    0.142936
  21 O :   -0.301804
  22 H :    0.139985
  23 H :    0.160418
  24 O :   -0.272469
  25 H :    0.148790
  26 H :    0.141911
  27 O :   -0.303098
  28 H :    0.141901
  29 H :    0.160674
  30 O :   -0.294191
  31 H :    0.144540
  32 H :    0.133202
  33 O :   -0.297173
  34 H :    0.132945
  35 H :    0.144888

  Mayer bond orders larger than 0.1
B(  0-O ,  1-H ) :   0.8306 B(  0-O ,  2-H ) :   0.8310 B(  0-O , 17-H ) :   0.1938
B(  3-O ,  4-H ) :   0.8285 B(  3-O ,  5-H ) :   0.8298 B(  3-O , 28-H ) :   0.1667
B(  6-O ,  7-H ) :   0.8148 B(  6-O ,  8-H ) :   0.7764 B(  6-O , 34-H ) :   0.1416
B(  8-H , 30-O ) :   0.1513 B(  9-O , 10-H ) :   0.8272 B(  9-O , 11-H ) :   0.8272
B(  9-O , 13-H ) :   0.1757 B( 12-O , 13-H ) :   0.7334 B( 12-O , 14-H ) :   0.8816
B( 15-O , 16-H ) :   0.8810 B( 15-O , 17-H ) :   0.7274 B( 18-O , 19-H ) :   0.7801
B( 18-O , 20-H ) :   0.8132 B( 18-O , 32-H ) :   0.1403 B( 19-H , 33-O ) :   0.1374
B( 21-O , 22-H ) :   0.7343 B( 21-O , 23-H ) :   0.8814 B( 22-H , 24-O ) :   0.1807
B( 24-O , 25-H ) :   0.8274 B( 24-O , 26-H ) :   0.8279 B( 27-O , 28-H ) :   0.7411
B( 27-O , 29-H ) :   0.8815 B( 30-O , 31-H ) :   0.8165 B( 30-O , 32-H ) :   0.7779
B( 33-O , 34-H ) :   0.7774 B( 33-O , 35-H ) :   0.8146

Dispersion correction           -0.022208453
FINAL SINGLE POINT ENERGY      -917.482284143080

DIPOLE MOMENT
-------------
                                X             Y             Z
Electronic contribution:     -0.00968      -0.00037      -0.03669
Nuclear contribution   :      0.04469       0.06919       0.12226
                        -----------------------------------------
Total Dipole Moment    :      0.03501       0.06882       0.08556
                        -----------------------------------------
Magnitude (a.u.)       :      0.11525
Magnitude (Debye)      :      0.29295

                             ****ORCA TERMINATED NORMALLY****
TOTAL RUN TIME: 0 days 0 hours 1 minutes 26 seconds 122 msec
