                         Program Version 3.0.3 - RELEASE   -
|  1> ! wB97X-D3 Def2-TZVP def2-TZVP/J RIJCOSX TightSCF Grid4 COSMO
|  2>
|  3> %pal nprocs 12 end
|  4>
|  5> %scf
|  6>         maxiter 400
|  7> end
|  8>
|  9> %cosmo
| 10>         SMD true
| 11>         solvent "WATER"
| 12> end
| 13>
| 14> * xyz  0  1
| 15> O  -2.139998	0.312027	-2.678987
| 16> H  -2.568298	0.770610	-1.916829
| 17> H  -1.745855	-0.481022	-2.254472
| 18> O  -0.049032	-1.850089	2.794084
| 19> H  -0.713404	-1.229400	2.429791
| 20> H  0.129011	-2.454769	2.033581
| 21> O  1.381859	0.099161	-1.270139
| 22> H  1.106687	0.792721	-1.918335
| 23> H  0.580309	-0.490161	-1.236035
| 24> O  -0.709406	3.232604	-0.360013
| 25> H  -0.382261	2.913149	-1.236080
| 26> H  -0.107906	2.794005	0.276502
| 27> O  -2.821956	1.633012	-0.397088
| 28> H  -2.104798	2.330897	-0.358498
| 29> H  -3.653807	2.108206	-0.246405
| 30> O  -0.003648	1.901945	-2.641912
| 31> H  0.177029	2.291161	-3.511253
| 32> H  -0.813907	1.324292	-2.766225
| 33> O  -1.417331	0.006623	1.247710
| 34> H  -0.600710	0.574340	1.252467
| 35> H  -2.107540	0.575733	0.828888
| 36> O  0.593211	-3.134347	0.479796
| 37> H  1.487711	-2.704613	0.340646
| 38> H  0.749772	-4.090287	0.436545
| 39> O  2.828175	-1.718699	0.174191
| 40> H  2.527281	-1.035816	-0.461945
| 41> H  2.787652	-1.263240	1.048694
| 42> O  2.244625	-0.481515	2.535711
| 43> H  1.422637	-1.001760	2.765792
| 44> H  2.774124	-0.441934	3.346623
| 45> O  -0.826060	-1.389773	-0.966021
| 46> H  -0.415822	-2.217589	-0.616199
| 47> H  -1.113419	-0.924268	-0.134643
| 48> O  0.889210	1.376795	1.058789
| 49> H  1.152424	0.953354	0.197558
| 50> H  1.461008	0.921793	1.721114
| 51> **                         ****END OF INPUT****

CARTESIAN COORDINATES (ANGSTROEM)
---------------------------------
  O     -2.139998    0.312027   -2.678987
  H     -2.568298    0.770610   -1.916829
  H     -1.745855   -0.481022   -2.254472
  O     -0.049032   -1.850089    2.794084
  H     -0.713404   -1.229400    2.429791
  H      0.129011   -2.454769    2.033581
  O      1.381859    0.099161   -1.270139
  H      1.106687    0.792721   -1.918335
  H      0.580309   -0.490161   -1.236035
  O     -0.709406    3.232604   -0.360013
  H     -0.382261    2.913149   -1.236080
  H     -0.107906    2.794005    0.276502
  O     -2.821956    1.633012   -0.397088
  H     -2.104798    2.330897   -0.358498
  H     -3.653807    2.108206   -0.246405
  O     -0.003648    1.901945   -2.641912
  H      0.177029    2.291161   -3.511253
  H     -0.813907    1.324292   -2.766225
  O     -1.417331    0.006623    1.247710
  H     -0.600710    0.574340    1.252467
  H     -2.107540    0.575733    0.828888
  O      0.593211   -3.134347    0.479796
  H      1.487711   -2.704613    0.340646
  H      0.749772   -4.090287    0.436545
  O      2.828175   -1.718699    0.174191
  H      2.527281   -1.035816   -0.461945
  H      2.787652   -1.263240    1.048694
  O      2.244625   -0.481515    2.535711
  H      1.422637   -1.001760    2.765792
  H      2.774124   -0.441934    3.346623
  O     -0.826060   -1.389773   -0.966021
  H     -0.415822   -2.217589   -0.616199
  H     -1.113419   -0.924268   -0.134643
  O      0.889210    1.376795    1.058789
  H      1.152424    0.953354    0.197558
  H      1.461008    0.921793    1.721114

 Total Charge           Charge          ....    0
 Multiplicity           Mult            ....    1
 Number of Electrons    NEL             ....  120
 Basis Dimension        Dim             ....  516

ORBITAL ENERGIES
----------------

  NO   OCC          E(Eh)            E(eV)
   0   2.0000     -19.240154      -523.5512
   1   2.0000     -19.239967      -523.5461
   2   2.0000     -19.239781      -523.5410
   3   2.0000     -19.239610      -523.5364
   4   2.0000     -19.233526      -523.3709
   5   2.0000     -19.233309      -523.3650
   6   2.0000     -19.232597      -523.3456
   7   2.0000     -19.231285      -523.3099
   8   2.0000     -19.230377      -523.2852
   9   2.0000     -19.228752      -523.2409
  10   2.0000     -19.228749      -523.2409
  11   2.0000     -19.228736      -523.2405
  12   2.0000      -1.152875       -31.3713
  13   2.0000      -1.142499       -31.0890
  14   2.0000      -1.136173       -30.9168
  15   2.0000      -1.134174       -30.8624
  16   2.0000      -1.131435       -30.7879
  17   2.0000      -1.125819       -30.6351
  18   2.0000      -1.122084       -30.5335
  19   2.0000      -1.115733       -30.3606
  20   2.0000      -1.114592       -30.3296
  21   2.0000      -1.111947       -30.2576
  22   2.0000      -1.107761       -30.1437
  23   2.0000      -1.096162       -29.8281
  24   2.0000      -0.650449       -17.6996
  25   2.0000      -0.646617       -17.5953
  26   2.0000      -0.645423       -17.5628
  27   2.0000      -0.643044       -17.4981
  28   2.0000      -0.642230       -17.4760
  29   2.0000      -0.634304       -17.2603
  30   2.0000      -0.633678       -17.2433
  31   2.0000      -0.631090       -17.1728
  32   2.0000      -0.625250       -17.0139
  33   2.0000      -0.621398       -16.9091
  34   2.0000      -0.618810       -16.8387
  35   2.0000      -0.616594       -16.7784
  36   2.0000      -0.573082       -15.5944
  37   2.0000      -0.544714       -14.8224
  38   2.0000      -0.540306       -14.7025
  39   2.0000      -0.531535       -14.4638
  40   2.0000      -0.517154       -14.0725
  41   2.0000      -0.512977       -13.9588
  42   2.0000      -0.506737       -13.7890
  43   2.0000      -0.503492       -13.7007
  44   2.0000      -0.485840       -13.2204
  45   2.0000      -0.481583       -13.1045
  46   2.0000      -0.479241       -13.0408
  47   2.0000      -0.455872       -12.4049
  48   2.0000      -0.429943       -11.6993
  49   2.0000      -0.429436       -11.6855
  50   2.0000      -0.425889       -11.5890
  51   2.0000      -0.424660       -11.5556
  52   2.0000      -0.424279       -11.5452
  53   2.0000      -0.422691       -11.5020
  54   2.0000      -0.422080       -11.4854
  55   2.0000      -0.418765       -11.3952
  56   2.0000      -0.418154       -11.3785
  57   2.0000      -0.417750       -11.3675
  58   2.0000      -0.416636       -11.3372
  59   2.0000      -0.414579       -11.2813
  60   0.0000       0.094319         2.5665
  61   0.0000       0.125473         3.4143
  62   0.0000       0.145806         3.9676
  63   0.0000       0.146900         3.9973
  64   0.0000       0.177780         4.8376

MULLIKEN ATOMIC CHARGES
-----------------------
   0 O :   -0.754076
   1 H :    0.377871
   2 H :    0.393559
   3 O :   -0.759848
   4 H :    0.391201
   5 H :    0.375722
   6 O :   -0.783860
   7 H :    0.395939
   8 H :    0.358390
   9 O :   -0.751659
  10 H :    0.378924
  11 H :    0.392086
  12 O :   -0.772460
  13 H :    0.376807
  14 H :    0.405871
  15 O :   -0.772304
  16 H :    0.407002
  17 H :    0.373392
  18 O :   -0.780882
  19 H :    0.364719
  20 H :    0.390549
  21 O :   -0.771191
  22 H :    0.376109
  23 H :    0.406559
  24 O :   -0.760190
  25 H :    0.393446
  26 H :    0.378895
  27 O :   -0.773220
  28 H :    0.377822
  29 H :    0.406187
  30 O :   -0.777459
  31 H :    0.394001
  32 H :    0.365175
  33 O :   -0.779246
  34 H :    0.365746
  35 H :    0.390421
Sum of atomic charges:    0.0000000

LOEWDIN ATOMIC CHARGES
----------------------
   0 O :   -0.317927
   1 H :    0.143203
   2 H :    0.149517
   3 O :   -0.320275
   4 H :    0.149726
   5 H :    0.142221
   6 O :   -0.310809
   7 H :    0.144593
   8 H :    0.133501
   9 O :   -0.309783
  10 H :    0.145937
  11 H :    0.153391
  12 O :   -0.283996
  13 H :    0.144003
  14 H :    0.187118
  15 O :   -0.279327
  16 H :    0.187229
  17 H :    0.145724
  18 O :   -0.308117
  19 H :    0.134501
  20 H :    0.146126
  21 O :   -0.280748
  22 H :    0.145631
  23 H :    0.186982
  24 O :   -0.315448
  25 H :    0.146706
  26 H :    0.142773
  27 O :   -0.287958
  28 H :    0.147656
  29 H :    0.186983
  30 O :   -0.304469
  31 H :    0.146863
  32 H :    0.134645
  33 O :   -0.311942
  34 H :    0.136567
  35 H :    0.149205

  Mayer bond orders larger than 0.1
B(  0-O ,  1-H ) :   0.8076 B(  0-O ,  2-H ) :   0.8202 B(  0-O , 17-H ) :   0.1456
B(  3-O ,  4-H ) :   0.8242 B(  3-O ,  5-H ) :   0.8030 B(  3-O , 28-H ) :   0.1292
B(  5-H , 21-O ) :   0.1041 B(  6-O ,  7-H ) :   0.7862 B(  6-O ,  8-H ) :   0.7731
B(  6-O , 34-H ) :   0.1306 B(  7-H , 15-O ) :   0.1043 B(  8-H , 30-O ) :   0.1402
B(  9-O , 10-H ) :   0.8058 B(  9-O , 11-H ) :   0.8272 B(  9-O , 13-H ) :   0.1362
B( 12-O , 13-H ) :   0.7633 B( 12-O , 14-H ) :   0.8404 B( 12-O , 20-H ) :   0.1032
B( 15-O , 16-H ) :   0.8394 B( 15-O , 17-H ) :   0.7603 B( 18-O , 19-H ) :   0.7754
B( 18-O , 20-H ) :   0.7924 B( 18-O , 32-H ) :   0.1367 B( 19-H , 33-O ) :   0.1313
B( 21-O , 22-H ) :   0.7626 B( 21-O , 23-H ) :   0.8398 B( 21-O , 31-H ) :   0.1005
B( 22-H , 24-O ) :   0.1391 B( 24-O , 25-H ) :   0.8166 B( 24-O , 26-H ) :   0.8044
B( 27-O , 28-H ) :   0.7695 B( 27-O , 29-H ) :   0.8401 B( 30-O , 31-H ) :   0.7912
B( 30-O , 32-H ) :   0.7751 B( 33-O , 34-H ) :   0.7774 B( 33-O , 35-H ) :   0.7985

Dispersion correction           -0.022128755
FINAL SINGLE POINT ENERGY      -917.529221077146

DIPOLE MOMENT
-------------
                                X             Y             Z
Electronic contribution:     -0.01797       0.04671      -0.03817
Nuclear contribution   :      0.07376       0.03322       0.05747
                        -----------------------------------------
Total Dipole Moment    :      0.05579       0.07993       0.01930
                        -----------------------------------------
Magnitude (a.u.)       :      0.09937
Magnitude (Debye)      :      0.25257

                             ****ORCA TERMINATED NORMALLY****
TOTAL RUN TIME: 0 days 0 hours 1 minutes 36 seconds 575 msec
