                         Program Version 3.0.3 - RELEASE   -
|  1> ! B3LYP Def2-TZVP def2-TZVP/J RIJCOSX TightSCF Grid4 D3BJ COSMO
|  2>
|  3> %pal nprocs 12 end
|  4>
|  5> %scf
|  6>         maxiter 400
|  7> end
|  8>
|  9> %cosmo
| 10>         SMD true
| 11>         solvent "WATER"
| 12> end
| 13>
| 14> * xyz  0  1
| 15> O  -2.097228	0.363136	-2.552636
| 16> H  -2.513469	0.834502	-1.770382
| 17> H  -1.707747	-0.448195	-2.127672
| 18> O  -0.065345	-1.886520	2.734524
| 19> H  -0.739453	-1.265903	2.347191
| 20> H  0.145605	-2.487069	1.958873
| 21> O  1.397246	0.045036	-1.275120
| 22> H  1.105519	0.744489	-1.936963
| 23> H  0.572005	-0.547680	-1.218035
| 24> O  -0.679271	3.225149	-0.411024
| 25> H  -0.361783	2.875593	-1.296801
| 26> H  -0.075969	2.758048	0.227359
| 27> O  -2.765495	1.655067	-0.277366
| 28> H  -2.016019	2.359968	-0.301437
| 29> H  -3.587284	2.150607	-0.090808
| 30> O  0.038308	1.866388	-2.630956
| 31> H  0.186057	2.246647	-3.519211
| 32> H  -0.812605	1.293562	-2.712301
| 33> O  -1.411961	-0.025130	1.255123
| 34> H  -0.584287	0.563786	1.203659
| 35> H  -2.115876	0.566458	0.846832
| 36> O  0.660058	-3.131110	0.443083
| 37> H  1.573402	-2.673243	0.330841
| 38> H  0.822739	-4.088155	0.328003
| 39> O  2.844533	-1.712229	0.233195
| 40> H  2.527518	-1.051863	-0.439862
| 41> H  2.718467	-1.216785	1.096254
| 42> O  2.062434	-0.385358	2.460739
| 43> H  1.253719	-0.978022	2.682966
| 44> H  2.576754	-0.313228	3.288905
| 45> O  -0.788246	-1.399385	-0.928290
| 46> H  -0.352056	-2.229026	-0.563542
| 47> H  -1.087372	-0.920828	-0.082379
| 48> O  0.807970	1.380868	0.949596
| 49> H  1.098310	0.910621	0.097308
| 50> H  1.368389	0.922951	1.647739
| 51> **                         ****END OF INPUT****

CARTESIAN COORDINATES (ANGSTROEM)
---------------------------------
  O     -2.097228    0.363136   -2.552636
  H     -2.513469    0.834502   -1.770382
  H     -1.707747   -0.448195   -2.127672
  O     -0.065345   -1.886520    2.734524
  H     -0.739453   -1.265903    2.347191
  H      0.145605   -2.487069    1.958873
  O      1.397246    0.045036   -1.275120
  H      1.105519    0.744489   -1.936963
  H      0.572005   -0.547680   -1.218035
  O     -0.679271    3.225149   -0.411024
  H     -0.361783    2.875593   -1.296801
  H     -0.075969    2.758048    0.227359
  O     -2.765495    1.655067   -0.277366
  H     -2.016019    2.359968   -0.301437
  H     -3.587284    2.150607   -0.090808
  O      0.038308    1.866388   -2.630956
  H      0.186057    2.246647   -3.519211
  H     -0.812605    1.293562   -2.712301
  O     -1.411961   -0.025130    1.255123
  H     -0.584287    0.563786    1.203659
  H     -2.115876    0.566458    0.846832
  O      0.660058   -3.131110    0.443083
  H      1.573402   -2.673243    0.330841
  H      0.822739   -4.088155    0.328003
  O      2.844533   -1.712229    0.233195
  H      2.527518   -1.051863   -0.439862
  H      2.718467   -1.216785    1.096254
  O      2.062434   -0.385358    2.460739
  H      1.253719   -0.978022    2.682966
  H      2.576754   -0.313228    3.288905
  O     -0.788246   -1.399385   -0.928290
  H     -0.352056   -2.229026   -0.563542
  H     -1.087372   -0.920828   -0.082379
  O      0.807970    1.380868    0.949596
  H      1.098310    0.910621    0.097308
  H      1.368389    0.922951    1.647739

 Total Charge           Charge          ....    0
 Multiplicity           Mult            ....    1
 Number of Electrons    NEL             ....  120
 Basis Dimension        Dim             ....  516

ORBITAL ENERGIES
----------------

  NO   OCC          E(Eh)            E(eV)
   0   2.0000     -19.132776      -520.6293
   1   2.0000     -19.132523      -520.6224
   2   2.0000     -19.132442      -520.6202
   3   2.0000     -19.132094      -520.6107
   4   2.0000     -19.123253      -520.3702
   5   2.0000     -19.123233      -520.3696
   6   2.0000     -19.122902      -520.3606
   7   2.0000     -19.122791      -520.3576
   8   2.0000     -19.122395      -520.3468
   9   2.0000     -19.121967      -520.3352
  10   2.0000     -19.121701      -520.3279
  11   2.0000     -19.121407      -520.3199
  12   2.0000      -1.033888       -28.1335
  13   2.0000      -1.023701       -27.8563
  14   2.0000      -1.015910       -27.6443
  15   2.0000      -1.013003       -27.5652
  16   2.0000      -1.010173       -27.4882
  17   2.0000      -1.006010       -27.3749
  18   2.0000      -1.000866       -27.2349
  19   2.0000      -0.993127       -27.0244
  20   2.0000      -0.991455       -26.9789
  21   2.0000      -0.988582       -26.9007
  22   2.0000      -0.985610       -26.8198
  23   2.0000      -0.970252       -26.4019
  24   2.0000      -0.540874       -14.7179
  25   2.0000      -0.538672       -14.6580
  26   2.0000      -0.537320       -14.6212
  27   2.0000      -0.534316       -14.5395
  28   2.0000      -0.533117       -14.5068
  29   2.0000      -0.526888       -14.3373
  30   2.0000      -0.524915       -14.2837
  31   2.0000      -0.522577       -14.2200
  32   2.0000      -0.516142       -14.0449
  33   2.0000      -0.510397       -13.8886
  34   2.0000      -0.509557       -13.8657
  35   2.0000      -0.507823       -13.8186
  36   2.0000      -0.471985       -12.8434
  37   2.0000      -0.443867       -12.0782
  38   2.0000      -0.436883       -11.8882
  39   2.0000      -0.430982       -11.7276
  40   2.0000      -0.413852       -11.2615
  41   2.0000      -0.413147       -11.2423
  42   2.0000      -0.403872       -10.9899
  43   2.0000      -0.403389       -10.9768
  44   2.0000      -0.383480       -10.4350
  45   2.0000      -0.379165       -10.3176
  46   2.0000      -0.378305       -10.2942
  47   2.0000      -0.353355        -9.6153
  48   2.0000      -0.328380        -8.9357
  49   2.0000      -0.327661        -8.9161
  50   2.0000      -0.324845        -8.8395
  51   2.0000      -0.323180        -8.7942
  52   2.0000      -0.322669        -8.7803
  53   2.0000      -0.320826        -8.7301
  54   2.0000      -0.320175        -8.7124
  55   2.0000      -0.318400        -8.6641
  56   2.0000      -0.317180        -8.6309
  57   2.0000      -0.315788        -8.5930
  58   2.0000      -0.314406        -8.5554
  59   2.0000      -0.312457        -8.5024
  60   0.0000       0.015598         0.4244
  61   0.0000       0.041131         1.1192
  62   0.0000       0.058620         1.5951
  63   0.0000       0.059081         1.6077
  64   0.0000       0.094737         2.5779

MULLIKEN ATOMIC CHARGES
-----------------------
   0 O :   -0.745172
   1 H :    0.375000
   2 H :    0.389034
   3 O :   -0.747429
   4 H :    0.388951
   5 H :    0.374327
   6 O :   -0.782182
   7 H :    0.386147
   8 H :    0.364430
   9 O :   -0.745896
  10 H :    0.374458
  11 H :    0.389191
  12 O :   -0.753254
  13 H :    0.377054
  14 H :    0.387074
  15 O :   -0.752348
  16 H :    0.386608
  17 H :    0.376212
  18 O :   -0.781403
  19 H :    0.364478
  20 H :    0.385794
  21 O :   -0.753163
  22 H :    0.377148
  23 H :    0.387570
  24 O :   -0.746696
  25 H :    0.388631
  26 H :    0.374919
  27 O :   -0.752504
  28 H :    0.376840
  29 H :    0.387548
  30 O :   -0.779444
  31 H :    0.385444
  32 H :    0.367937
  33 O :   -0.779114
  34 H :    0.367708
  35 H :    0.386100
Sum of atomic charges:   -0.0000000

LOEWDIN ATOMIC CHARGES
----------------------
   0 O :   -0.318770
   1 H :    0.149033
   2 H :    0.154187
   3 O :   -0.319948
   4 H :    0.153634
   5 H :    0.148512
   6 O :   -0.325339
   7 H :    0.149493
   8 H :    0.137877
   9 O :   -0.319223
  10 H :    0.148668
  11 H :    0.154210
  12 O :   -0.288953
  13 H :    0.151268
  14 H :    0.187745
  15 O :   -0.288622
  16 H :    0.187448
  17 H :    0.150674
  18 O :   -0.323498
  19 H :    0.138074
  20 H :    0.148852
  21 O :   -0.287899
  22 H :    0.150582
  23 H :    0.187960
  24 O :   -0.318385
  25 H :    0.153485
  26 H :    0.148730
  27 O :   -0.287499
  28 H :    0.151034
  29 H :    0.188146
  30 O :   -0.319218
  31 H :    0.148611
  32 H :    0.139341
  33 O :   -0.318829
  34 H :    0.139672
  35 H :    0.148946

  Mayer bond orders larger than 0.1
B(  0-O ,  1-H ) :   0.7909 B(  0-O ,  2-H ) :   0.8114 B(  0-O , 17-H ) :   0.1753
B(  1-H , 12-O ) :   0.1183 B(  3-O ,  4-H ) :   0.8114 B(  3-O ,  5-H ) :   0.7908
B(  3-O , 28-H ) :   0.1727 B(  5-H , 21-O ) :   0.1197 B(  6-O ,  7-H ) :   0.7757
B(  6-O ,  8-H ) :   0.7467 B(  6-O , 34-H ) :   0.1600 B(  7-H , 15-O ) :   0.1234
B(  8-H , 30-O ) :   0.1623 B(  9-O , 10-H ) :   0.7903 B(  9-O , 11-H ) :   0.8118
B(  9-O , 13-H ) :   0.1743 B( 10-H , 15-O ) :   0.1199 B( 12-O , 13-H ) :   0.7284
B( 12-O , 14-H ) :   0.8491 B( 12-O , 20-H ) :   0.1254 B( 15-O , 16-H ) :   0.8496
B( 15-O , 17-H ) :   0.7283 B( 18-O , 19-H ) :   0.7475 B( 18-O , 20-H ) :   0.7749
B( 18-O , 32-H ) :   0.1615 B( 19-H , 33-O ) :   0.1612 B( 21-O , 22-H ) :   0.7285
B( 21-O , 23-H ) :   0.8488 B( 21-O , 31-H ) :   0.1263 B( 22-H , 24-O ) :   0.1743
B( 24-O , 25-H ) :   0.8112 B( 24-O , 26-H ) :   0.7907 B( 26-H , 27-O ) :   0.1192
B( 27-O , 28-H ) :   0.7303 B( 27-O , 29-H ) :   0.8488 B( 27-O , 35-H ) :   0.1251
B( 30-O , 31-H ) :   0.7744 B( 30-O , 32-H ) :   0.7478 B( 33-O , 34-H ) :   0.7495
B( 33-O , 35-H ) :   0.7747

Dispersion correction           -0.044621873
FINAL SINGLE POINT ENERGY      -917.367264915122

DIPOLE MOMENT
-------------
                                X             Y             Z
Electronic contribution:      0.00566      -0.00230       0.00772
Nuclear contribution   :     -0.00952       0.01283      -0.00433
                        -----------------------------------------
Total Dipole Moment    :     -0.00386       0.01052       0.00339
                        -----------------------------------------
Magnitude (a.u.)       :      0.01171
Magnitude (Debye)      :      0.02977

                             ****ORCA TERMINATED NORMALLY****
TOTAL RUN TIME: 0 days 0 hours 1 minutes 31 seconds 855 msec
