                         Program Version 4.2.0 -  RELEASE  -
|  1> # 12h2o.su.etal.mol2,3,4,5,9,10
|  2> ! MP2 def2-TZVP EnGrad TightSCF
|  3>
|  4> %pal
|  5>     nprocs 6
|  6> end
|  7>
|  8> %maxcore 8000
|  9>
| 10> %scf
| 11>     ConvForced true
| 12> end
| 13>
| 14> *xyz 0 1
| 15> O   0.923410000  -1.794470000  -2.768350000
| 16> H   1.359750000  -2.338250000  -3.430940000
| 17> H   1.303000000  -0.879480000  -2.865760000
| 18> O  -1.752130000  -0.741530000  -2.896280000
| 19> H  -2.036450000  -0.920500000  -1.984040000
| 20> H  -0.921210000  -1.242140000  -2.984230000
| 21> O  -0.885520000   1.737840000   0.052730000
| 22> H  -1.032320000   2.090180000  -0.841890000
| 23> H  -1.284090000   0.839590000   0.017130000
| 24> O   0.885520000  -1.737840000   0.052730000
| 25> H   1.284090000  -0.839590000   0.017130000
| 26> H   1.032320000  -2.090180000  -0.841890000
| 27> O   0.741530000  -1.752130000   2.896280000
| 28> H   0.920500000  -2.036450000   1.984040000
| 29> H   1.242140000  -0.921210000   2.984230000
| 30> O  -0.923410000   1.794470000  -2.768350000
| 31> H  -1.359750000   2.338250000  -3.430940000
| 32> H  -1.303000000   0.879480000  -2.865760000
| 33> *
| 34>
| 35>                          ****END OF INPUT****

CARTESIAN COORDINATES (ANGSTROEM)
---------------------------------
  O      0.923410   -1.794470   -2.768350
  H      1.359750   -2.338250   -3.430940
  H      1.303000   -0.879480   -2.865760
  O     -1.752130   -0.741530   -2.896280
  H     -2.036450   -0.920500   -1.984040
  H     -0.921210   -1.242140   -2.984230
  O     -0.885520    1.737840    0.052730
  H     -1.032320    2.090180   -0.841890
  H     -1.284090    0.839590    0.017130
  O      0.885520   -1.737840    0.052730
  H      1.284090   -0.839590    0.017130
  H      1.032320   -2.090180   -0.841890
  O      0.741530   -1.752130    2.896280
  H      0.920500   -2.036450    1.984040
  H      1.242140   -0.921210    2.984230
  O     -0.923410    1.794470   -2.768350
  H     -1.359750    2.338250   -3.430940
  H     -1.303000    0.879480   -2.865760

 Total Charge           Charge          ....    0
 Multiplicity           Mult            ....    1
 Number of Electrons    NEL             ....   60
 Basis Dimension        Dim             ....  258

ORBITAL ENERGIES
----------------

  NO   OCC          E(Eh)            E(eV)
   0   2.0000     -20.636373      -561.5443
   1   2.0000     -20.592476      -560.3498
   2   2.0000     -20.572171      -559.7972
   3   2.0000     -20.552435      -559.2602
   4   2.0000     -20.531498      -558.6905
   5   2.0000     -20.522682      -558.4506
   6   2.0000      -1.416886       -38.5554
   7   2.0000      -1.381432       -37.5907
   8   2.0000      -1.353611       -36.8336
   9   2.0000      -1.336988       -36.3813
  10   2.0000      -1.309630       -35.6369
  11   2.0000      -1.304566       -35.4990
  12   2.0000      -0.782479       -21.2923
  13   2.0000      -0.743387       -20.2286
  14   2.0000      -0.724421       -19.7125
  15   2.0000      -0.720773       -19.6132
  16   2.0000      -0.678763       -18.4701
  17   2.0000      -0.673784       -18.3346
  18   2.0000      -0.656979       -17.8773
  19   2.0000      -0.625363       -17.0170
  20   2.0000      -0.601557       -16.3692
  21   2.0000      -0.583020       -15.8648
  22   2.0000      -0.569474       -15.4962
  23   2.0000      -0.553402       -15.0588
  24   2.0000      -0.540288       -14.7020
  25   2.0000      -0.527181       -14.3453
  26   2.0000      -0.516377       -14.0513
  27   2.0000      -0.499295       -13.5865
  28   2.0000      -0.476896       -12.9770
  29   2.0000      -0.469202       -12.7676
  30   0.0000       0.074927         2.0389
  31   0.0000       0.119143         3.2420
  32   0.0000       0.141692         3.8556
  33   0.0000       0.149332         4.0635
  34   0.0000       0.169054         4.6002

MULLIKEN ATOMIC CHARGES
-----------------------
   0 O :   -0.724326
   1 H :    0.372098
   2 H :    0.378738
   3 O :   -0.696265
   4 H :    0.355849
   5 H :    0.376916
   6 O :   -0.696979
   7 H :    0.368497
   8 H :    0.313756
   9 O :   -0.711704
  10 H :    0.338777
  11 H :    0.370008
  12 O :   -0.696327
  13 H :    0.368091
  14 H :    0.321032
  15 O :   -0.742731
  16 H :    0.339310
  17 H :    0.365261
Sum of atomic charges:    0.0000000

LOEWDIN ATOMIC CHARGES
----------------------
   0 O :   -0.287878
   1 H :    0.171888
   2 H :    0.195131
   3 O :   -0.276952
   4 H :    0.170827
   5 H :    0.153823
   6 O :   -0.347875
   7 H :    0.149059
   8 H :    0.156843
   9 O :   -0.324367
  10 H :    0.169602
  11 H :    0.150242
  12 O :   -0.341708
  13 H :    0.151285
  14 H :    0.158676
  15 O :   -0.344447
  16 H :    0.154540
  17 H :    0.141310

  Mayer bond orders larger than 0.100000
B(  0-O ,  1-H ) :   0.8274 B(  0-O ,  2-H ) :   0.8137 B(  3-O ,  4-H ) :   0.8372
B(  3-O ,  5-H ) :   0.8027 B(  6-O ,  7-H ) :   0.8116 B(  6-O ,  8-H ) :   0.8608
B(  9-O , 10-H ) :   0.8404 B(  9-O , 11-H ) :   0.8151 B( 12-O , 13-H ) :   0.8218
B( 12-O , 14-H ) :   0.8622 B( 15-O , 16-H ) :   0.8491 B( 15-O , 17-H ) :   0.7615

MP2 TOTAL ENERGY:     -457.917995501 Eh
FINAL SINGLE POINT ENERGY      -457.917995501463

DIPOLE MOMENT
-------------
                                X             Y             Z
Electronic contribution:     -0.08261      -0.37027      -0.11047
Nuclear contribution   :      1.02062      -0.11069      -2.81375
                        -----------------------------------------
Total Dipole Moment    :      0.93801      -0.48096      -2.92421
                        -----------------------------------------
Magnitude (a.u.)       :      3.10841
Magnitude (Debye)      :      7.90094

Rotational constants in cm-1:     0.053912     0.027248     0.020186
Rotational constants in MHz :  1616.249370   816.862896   605.161700

                             ****ORCA TERMINATED NORMALLY****
TOTAL RUN TIME: 0 days 0 hours 1 minutes 1 seconds 935 msec
