                         Program Version 4.2.0 -  RELEASE  -
|  1> # 12h2o.su.etal.mol3,7,8
|  2> ! MP2 def2-TZVP EnGrad TightSCF
|  3>
|  4> %pal
|  5>     nprocs 6
|  6> end
|  7>
|  8> %maxcore 8000
|  9>
| 10> %scf
| 11>     ConvForced true
| 12> end
| 13>
| 14> *xyz 0 1
| 15> O  -1.752130000  -0.741530000  -2.896280000
| 16> H  -2.036450000  -0.920500000  -1.984040000
| 17> H  -0.921210000  -1.242140000  -2.984230000
| 18> O  -1.737840000  -0.885520000  -0.052730000
| 19> H  -2.090180000  -1.032320000   0.841890000
| 20> H  -0.839590000  -1.284090000  -0.017130000
| 21> O   1.752130000   0.741530000  -2.896280000
| 22> H   2.036450000   0.920500000  -1.984040000
| 23> H   0.921210000   1.242140000  -2.984230000
| 24> *
| 25>
| 26>                          ****END OF INPUT****

CARTESIAN COORDINATES (ANGSTROEM)
---------------------------------
  O     -1.752130   -0.741530   -2.896280
  H     -2.036450   -0.920500   -1.984040
  H     -0.921210   -1.242140   -2.984230
  O     -1.737840   -0.885520   -0.052730
  H     -2.090180   -1.032320    0.841890
  H     -0.839590   -1.284090   -0.017130
  O      1.752130    0.741530   -2.896280
  H      2.036450    0.920500   -1.984040
  H      0.921210    1.242140   -2.984230

 Total Charge           Charge          ....    0
 Multiplicity           Mult            ....    1
 Number of Electrons    NEL             ....   30
 Basis Dimension        Dim             ....  129

ORBITAL ENERGIES
----------------

  NO   OCC          E(Eh)            E(eV)
   0   2.0000     -20.594699      -560.4103
   1   2.0000     -20.560730      -559.4859
   2   2.0000     -20.533324      -558.7402
   3   2.0000      -1.373043       -37.3624
   4   2.0000      -1.339903       -36.4606
   5   2.0000      -1.315062       -35.7847
   6   2.0000      -0.735538       -20.0150
   7   2.0000      -0.702547       -19.1173
   8   2.0000      -0.684796       -18.6342
   9   2.0000      -0.613249       -16.6873
  10   2.0000      -0.577781       -15.7222
  11   2.0000      -0.553807       -15.0699
  12   2.0000      -0.534941       -14.5565
  13   2.0000      -0.505346       -13.7512
  14   2.0000      -0.479287       -13.0421
  15   0.0000       0.095791         2.6066
  16   0.0000       0.134251         3.6532
  17   0.0000       0.175016         4.7624
  18   0.0000       0.188000         5.1157
  19   0.0000       0.219619         5.9761

MULLIKEN ATOMIC CHARGES
-----------------------
   0 O :   -0.698723
   1 H :    0.368553
   2 H :    0.325756
   3 O :   -0.689716
   4 H :    0.351121
   5 H :    0.343871
   6 O :   -0.682813
   7 H :    0.332269
   8 H :    0.349681
Sum of atomic charges:   -0.0000000

LOEWDIN ATOMIC CHARGES
----------------------
   0 O :   -0.339096
   1 H :    0.152425
   2 H :    0.158542
   3 O :   -0.317635
   4 H :    0.171529
   5 H :    0.174683
   6 O :   -0.333369
   7 H :    0.162962
   8 H :    0.169960

  Mayer bond orders larger than 0.100000
B(  0-O ,  1-H ) :   0.8223 B(  0-O ,  2-H ) :   0.8565 B(  3-O ,  4-H ) :   0.8417
B(  3-O ,  5-H ) :   0.8426 B(  6-O ,  7-H ) :   0.8558 B(  6-O ,  8-H ) :   0.8416

MP2 TOTAL ENERGY:     -228.947126342 Eh
FINAL SINGLE POINT ENERGY      -228.947126342222

DIPOLE MOMENT
-------------
                                X             Y             Z
Electronic contribution:     -0.12354       0.09287      -0.18481
Nuclear contribution   :      0.45439      -0.45394       2.14649
                        -----------------------------------------
Total Dipole Moment    :      0.33085      -0.36107       1.96169
                        -----------------------------------------
Magnitude (a.u.)       :      2.02189
Magnitude (Debye)      :      5.13924

Rotational constants in cm-1:     0.267861     0.078204     0.061286
Rotational constants in MHz :  8030.267461  2344.496211  1837.296527

                             ****ORCA TERMINATED NORMALLY****
TOTAL RUN TIME: 0 days 0 hours 0 minutes 13 seconds 297 msec
