                         Program Version 4.2.0 -  RELEASE  -
|  1> # 12h2o.su.etal.mol0,2,3,4,6,7,9,11
|  2> ! MP2 def2-TZVP EnGrad TightSCF
|  3>
|  4> %pal
|  5>     nprocs 6
|  6> end
|  7>
|  8> %maxcore 8000
|  9>
| 10> %scf
| 11>     ConvForced true
| 12> end
| 13>
| 14> *xyz 0 1
| 15> O   1.794470000   0.923410000   2.768350000
| 16> H   2.338250000   1.359750000   3.430940000
| 17> H   0.879480000   1.303000000   2.865760000
| 18> O   0.923410000  -1.794470000  -2.768350000
| 19> H   1.359750000  -2.338250000  -3.430940000
| 20> H   1.303000000  -0.879480000  -2.865760000
| 21> O  -1.752130000  -0.741530000  -2.896280000
| 22> H  -2.036450000  -0.920500000  -1.984040000
| 23> H  -0.921210000  -1.242140000  -2.984230000
| 24> O  -0.885520000   1.737840000   0.052730000
| 25> H  -1.032320000   2.090180000  -0.841890000
| 26> H  -1.284090000   0.839590000   0.017130000
| 27> O   1.737840000   0.885520000  -0.052730000
| 28> H   2.090180000   1.032320000   0.841890000
| 29> H   0.839590000   1.284090000  -0.017130000
| 30> O  -1.737840000  -0.885520000  -0.052730000
| 31> H  -2.090180000  -1.032320000   0.841890000
| 32> H  -0.839590000  -1.284090000  -0.017130000
| 33> O   0.741530000  -1.752130000   2.896280000
| 34> H   0.920500000  -2.036450000   1.984040000
| 35> H   1.242140000  -0.921210000   2.984230000
| 36> O  -0.741530000   1.752130000   2.896280000
| 37> H  -0.920500000   2.036450000   1.984040000
| 38> H  -1.242140000   0.921210000   2.984230000
| 39> *
| 40>
| 41>                          ****END OF INPUT****

CARTESIAN COORDINATES (ANGSTROEM)
---------------------------------
  O      1.794470    0.923410    2.768350
  H      2.338250    1.359750    3.430940
  H      0.879480    1.303000    2.865760
  O      0.923410   -1.794470   -2.768350
  H      1.359750   -2.338250   -3.430940
  H      1.303000   -0.879480   -2.865760
  O     -1.752130   -0.741530   -2.896280
  H     -2.036450   -0.920500   -1.984040
  H     -0.921210   -1.242140   -2.984230
  O     -0.885520    1.737840    0.052730
  H     -1.032320    2.090180   -0.841890
  H     -1.284090    0.839590    0.017130
  O      1.737840    0.885520   -0.052730
  H      2.090180    1.032320    0.841890
  H      0.839590    1.284090   -0.017130
  O     -1.737840   -0.885520   -0.052730
  H     -2.090180   -1.032320    0.841890
  H     -0.839590   -1.284090   -0.017130
  O      0.741530   -1.752130    2.896280
  H      0.920500   -2.036450    1.984040
  H      1.242140   -0.921210    2.984230
  O     -0.741530    1.752130    2.896280
  H     -0.920500    2.036450    1.984040
  H     -1.242140    0.921210    2.984230

 Total Charge           Charge          ....    0
 Multiplicity           Mult            ....    1
 Number of Electrons    NEL             ....   80
 Basis Dimension        Dim             ....  344

ORBITAL ENERGIES
----------------

  NO   OCC          E(Eh)            E(eV)
   0   2.0000     -20.624890      -561.2318
   1   2.0000     -20.590154      -560.2866
   2   2.0000     -20.589963      -560.2814
   3   2.0000     -20.585894      -560.1706
   4   2.0000     -20.564831      -559.5975
   5   2.0000     -20.546768      -559.1060
   6   2.0000     -20.522342      -558.4413
   7   2.0000     -20.513995      -558.2142
   8   2.0000      -1.408877       -38.3375
   9   2.0000      -1.384022       -37.6612
  10   2.0000      -1.373007       -37.3614
  11   2.0000      -1.363621       -37.1060
  12   2.0000      -1.350499       -36.7489
  13   2.0000      -1.328032       -36.1376
  14   2.0000      -1.307490       -35.5786
  15   2.0000      -1.298150       -35.3245
  16   2.0000      -0.765120       -20.8200
  17   2.0000      -0.750050       -20.4099
  18   2.0000      -0.736853       -20.0508
  19   2.0000      -0.732209       -19.9244
  20   2.0000      -0.730695       -19.8832
  21   2.0000      -0.696956       -18.9651
  22   2.0000      -0.689987       -18.7755
  23   2.0000      -0.681967       -18.5573
  24   2.0000      -0.651146       -17.7186
  25   2.0000      -0.634014       -17.2524
  26   2.0000      -0.612344       -16.6627
  27   2.0000      -0.601488       -16.3673
  28   2.0000      -0.594964       -16.1898
  29   2.0000      -0.574712       -15.6387
  30   2.0000      -0.564876       -15.3711
  31   2.0000      -0.553341       -15.0572
  32   2.0000      -0.546286       -14.8652
  33   2.0000      -0.527655       -14.3582
  34   2.0000      -0.521409       -14.1883
  35   2.0000      -0.520282       -14.1576
  36   2.0000      -0.505455       -13.7541
  37   2.0000      -0.493938       -13.4407
  38   2.0000      -0.471988       -12.8434
  39   2.0000      -0.464888       -12.6502
  40   0.0000       0.077390         2.1059
  41   0.0000       0.117615         3.2005
  42   0.0000       0.139799         3.8041
  43   0.0000       0.141379         3.8471
  44   0.0000       0.150587         4.0977

MULLIKEN ATOMIC CHARGES
-----------------------
   0 O :   -0.750916
   1 H :    0.348511
   2 H :    0.383627
   3 O :   -0.705420
   4 H :    0.353218
   5 H :    0.372596
   6 O :   -0.723561
   7 H :    0.359905
   8 H :    0.348799
   9 O :   -0.740739
  10 H :    0.372629
  11 H :    0.367069
  12 O :   -0.741899
  13 H :    0.362930
  14 H :    0.339550
  15 O :   -0.713954
  16 H :    0.365725
  17 H :    0.378317
  18 O :   -0.714198
  19 H :    0.326883
  20 H :    0.367727
  21 O :   -0.695424
  22 H :    0.392786
  23 H :    0.345841
Sum of atomic charges:    0.0000000

LOEWDIN ATOMIC CHARGES
----------------------
   0 O :   -0.313358
   1 H :    0.158311
   2 H :    0.146437
   3 O :   -0.314444
   4 H :    0.163920
   5 H :    0.192378
   6 O :   -0.352559
   7 H :    0.145636
   8 H :    0.143457
   9 O :   -0.297213
  10 H :    0.177693
  11 H :    0.144920
  12 O :   -0.373113
  13 H :    0.144171
  14 H :    0.132583
  15 O :   -0.271913
  16 H :    0.174316
  17 H :    0.185333
  18 O :   -0.348311
  19 H :    0.156261
  20 H :    0.148890
  21 O :   -0.271740
  22 H :    0.160178
  23 H :    0.168165

  Mayer bond orders larger than 0.100000
B(  0-O ,  1-H ) :   0.8411 B(  0-O ,  2-H ) :   0.7438 B(  3-O ,  4-H ) :   0.8413
B(  3-O ,  5-H ) :   0.8202 B(  6-O ,  7-H ) :   0.8360 B(  6-O ,  8-H ) :   0.8221
B(  9-O , 10-H ) :   0.8260 B(  9-O , 11-H ) :   0.7709 B( 12-O , 13-H ) :   0.8210
B( 12-O , 14-H ) :   0.8113 B( 15-O , 16-H ) :   0.8283 B( 15-O , 17-H ) :   0.8100
B( 18-O , 19-H ) :   0.8568 B( 18-O , 20-H ) :   0.8039 B( 21-O , 22-H ) :   0.7955
B( 21-O , 23-H ) :   0.8409

MP2 TOTAL ENERGY:     -610.576363392 Eh
FINAL SINGLE POINT ENERGY      -610.576363392328

DIPOLE MOMENT
-------------
                                X             Y             Z
Electronic contribution:     -0.33972       0.06615       0.06054
Nuclear contribution   :      0.37119      -0.03192       0.08817
                        -----------------------------------------
Total Dipole Moment    :      0.03147       0.03423       0.14871
                        -----------------------------------------
Magnitude (a.u.)       :      0.15581
Magnitude (Debye)      :      0.39603

Rotational constants in cm-1:     0.036654     0.017000     0.015684
Rotational constants in MHz :  1098.867816   509.643209   470.205206

                             ****ORCA TERMINATED NORMALLY****
TOTAL RUN TIME: 0 days 0 hours 3 minutes 0 seconds 983 msec
