                         Program Version 4.2.0 -  RELEASE  -
|  1> # 12h2o.su.etal.mol0,3,5,7
|  2> ! MP2 def2-TZVP EnGrad TightSCF
|  3>
|  4> %pal
|  5>     nprocs 6
|  6> end
|  7>
|  8> %maxcore 8000
|  9>
| 10> %scf
| 11>     ConvForced true
| 12> end
| 13>
| 14> *xyz 0 1
| 15> O   1.794470000   0.923410000   2.768350000
| 16> H   2.338250000   1.359750000   3.430940000
| 17> H   0.879480000   1.303000000   2.865760000
| 18> O  -1.752130000  -0.741530000  -2.896280000
| 19> H  -2.036450000  -0.920500000  -1.984040000
| 20> H  -0.921210000  -1.242140000  -2.984230000
| 21> O   0.885520000  -1.737840000   0.052730000
| 22> H   1.284090000  -0.839590000   0.017130000
| 23> H   1.032320000  -2.090180000  -0.841890000
| 24> O  -1.737840000  -0.885520000  -0.052730000
| 25> H  -2.090180000  -1.032320000   0.841890000
| 26> H  -0.839590000  -1.284090000  -0.017130000
| 27> *
| 28>
| 29>                          ****END OF INPUT****

CARTESIAN COORDINATES (ANGSTROEM)
---------------------------------
  O      1.794470    0.923410    2.768350
  H      2.338250    1.359750    3.430940
  H      0.879480    1.303000    2.865760
  O     -1.752130   -0.741530   -2.896280
  H     -2.036450   -0.920500   -1.984040
  H     -0.921210   -1.242140   -2.984230
  O      0.885520   -1.737840    0.052730
  H      1.284090   -0.839590    0.017130
  H      1.032320   -2.090180   -0.841890
  O     -1.737840   -0.885520   -0.052730
  H     -2.090180   -1.032320    0.841890
  H     -0.839590   -1.284090   -0.017130

 Total Charge           Charge          ....    0
 Multiplicity           Mult            ....    1
 Number of Electrons    NEL             ....   40
 Basis Dimension        Dim             ....  172

ORBITAL ENERGIES
----------------

  NO   OCC          E(Eh)            E(eV)
   0   2.0000     -20.599595      -560.5435
   1   2.0000     -20.573849      -559.8429
   2   2.0000     -20.551000      -559.2211
   3   2.0000     -20.528845      -558.6183
   4   2.0000      -1.380411       -37.5629
   5   2.0000      -1.349119       -36.7114
   6   2.0000      -1.334778       -36.3212
   7   2.0000      -1.309942       -35.6453
   8   2.0000      -0.737387       -20.0653
   9   2.0000      -0.717528       -19.5249
  10   2.0000      -0.708994       -19.2927
  11   2.0000      -0.678991       -18.4763
  12   2.0000      -0.621606       -16.9148
  13   2.0000      -0.586152       -15.9500
  14   2.0000      -0.585838       -15.9415
  15   2.0000      -0.547227       -14.8908
  16   2.0000      -0.529398       -14.4056
  17   2.0000      -0.517108       -14.0712
  18   2.0000      -0.499676       -13.5969
  19   2.0000      -0.474961       -12.9244
  20   0.0000       0.092038         2.5045
  21   0.0000       0.117776         3.2048
  22   0.0000       0.155247         4.2245
  23   0.0000       0.177355         4.8261
  24   0.0000       0.195505         5.3200

MULLIKEN ATOMIC CHARGES
-----------------------
   0 O :   -0.688305
   1 H :    0.343694
   2 H :    0.346481
   3 O :   -0.689138
   4 H :    0.374621
   5 H :    0.303804
   6 O :   -0.678432
   7 H :    0.372474
   8 H :    0.348297
   9 O :   -0.723607
  10 H :    0.338292
  11 H :    0.351819
Sum of atomic charges:   -0.0000000

LOEWDIN ATOMIC CHARGES
----------------------
   0 O :   -0.340768
   1 H :    0.160321
   2 H :    0.182364
   3 O :   -0.338987
   4 H :    0.154411
   5 H :    0.150449
   6 O :   -0.286014
   7 H :    0.185776
   8 H :    0.168476
   9 O :   -0.341858
  10 H :    0.163581
  11 H :    0.142249

  Mayer bond orders larger than 0.100000
B(  0-O ,  1-H ) :   0.8503 B(  0-O ,  2-H ) :   0.8428 B(  3-O ,  4-H ) :   0.8137
B(  3-O ,  5-H ) :   0.8710 B(  6-O ,  7-H ) :   0.8237 B(  6-O ,  8-H ) :   0.8420
B(  9-O , 10-H ) :   0.8498 B(  9-O , 11-H ) :   0.7842

MP2 TOTAL ENERGY:     -305.267519352 Eh
FINAL SINGLE POINT ENERGY      -305.267519352481

DIPOLE MOMENT
-------------
                                X             Y             Z
Electronic contribution:      0.08692      -0.03415       0.03962
Nuclear contribution   :      1.05433       0.11394       1.31870
                        -----------------------------------------
Total Dipole Moment    :      1.14124       0.07979       1.35832
                        -----------------------------------------
Magnitude (a.u.)       :      1.77590
Magnitude (Debye)      :      4.51398

Rotational constants in cm-1:     0.182002     0.035179     0.033161
Rotational constants in MHz :  5456.271090  1054.625411   994.127386

                             ****ORCA TERMINATED NORMALLY****
TOTAL RUN TIME: 0 days 0 hours 0 minutes 16 seconds 76 msec
