                         Program Version 4.2.0 -  RELEASE  -
|  1> # 12mecn.remya.etal.2.mol7,8,10
|  2> ! MP2 def2-TZVP EnGrad TightSCF
|  3>
|  4> %pal
|  5>     nprocs 6
|  6> end
|  7>
|  8> %maxcore 8000
|  9>
| 10> %scf
| 11>     ConvForced true
| 12> end
| 13>
| 14> *xyz 0 1
| 15> C   1.502241000   0.651296000   1.710523000
| 16> H   1.309219000   1.637164000   2.143202000
| 17> H   2.493408000   0.297996000   2.009069000
| 18> H   0.746597000  -0.059850000   2.055508000
| 19> C   1.447974000   0.738517000   0.269805000
| 20> N   1.405612000   0.808047000  -0.894380000
| 21> C   1.912641000  -2.468050000  -1.750510000
| 22> H   2.876947000  -2.793500000  -2.151200000
| 23> H   1.688016000  -1.463720000  -2.122170000
| 24> H   1.123460000  -3.154780000  -2.069590000
| 25> C   1.977850000  -2.444240000  -0.306900000
| 26> N   2.036566000  -2.426130000   0.858249000
| 27> C   4.602033000   0.321019000  -1.784800000
| 28> H   4.827650000  -0.662160000  -2.207910000
| 29> H   5.320558000   1.057980000  -2.148500000
| 30> H   3.601982000   0.643751000  -2.087520000
| 31> C   4.654967000   0.244048000  -0.343060000
| 32> N   4.691648000   0.166590000   0.820757000
| 33> *
| 34>
| 35>                          ****END OF INPUT****

CARTESIAN COORDINATES (ANGSTROEM)
---------------------------------
  C      1.502241    0.651296    1.710523
  H      1.309219    1.637164    2.143202
  H      2.493408    0.297996    2.009069
  H      0.746597   -0.059850    2.055508
  C      1.447974    0.738517    0.269805
  N      1.405612    0.808047   -0.894380
  C      1.912641   -2.468050   -1.750510
  H      2.876947   -2.793500   -2.151200
  H      1.688016   -1.463720   -2.122170
  H      1.123460   -3.154780   -2.069590
  C      1.977850   -2.444240   -0.306900
  N      2.036566   -2.426130    0.858249
  C      4.602033    0.321019   -1.784800
  H      4.827650   -0.662160   -2.207910
  H      5.320558    1.057980   -2.148500
  H      3.601982    0.643751   -2.087520
  C      4.654967    0.244048   -0.343060
  N      4.691648    0.166590    0.820757

 Total Charge           Charge          ....    0
 Multiplicity           Mult            ....    1
 Number of Electrons    NEL             ....   66
 Basis Dimension        Dim             ....  333

ORBITAL ENERGIES
----------------

  NO   OCC          E(Eh)            E(eV)
   0   2.0000     -15.569872      -423.6778
   1   2.0000     -15.569807      -423.6760
   2   2.0000     -15.567246      -423.6063
   3   2.0000     -11.283698      -307.0450
   4   2.0000     -11.279814      -306.9394
   5   2.0000     -11.279595      -306.9334
   6   2.0000     -11.278129      -306.8935
   7   2.0000     -11.276455      -306.8479
   8   2.0000     -11.260379      -306.4105
   9   2.0000      -1.217867       -33.1398
  10   2.0000      -1.212822       -33.0026
  11   2.0000      -1.211565       -32.9684
  12   2.0000      -1.040590       -28.3159
  13   2.0000      -1.037668       -28.2364
  14   2.0000      -1.026243       -27.9255
  15   2.0000      -0.697508       -18.9802
  16   2.0000      -0.694188       -18.8898
  17   2.0000      -0.683630       -18.6025
  18   2.0000      -0.635410       -17.2904
  19   2.0000      -0.633234       -17.2312
  20   2.0000      -0.626847       -17.0574
  21   2.0000      -0.621140       -16.9021
  22   2.0000      -0.611990       -16.6531
  23   2.0000      -0.608499       -16.5581
  24   2.0000      -0.558332       -15.1930
  25   2.0000      -0.554174       -15.0798
  26   2.0000      -0.553764       -15.0687
  27   2.0000      -0.465173       -12.6580
  28   2.0000      -0.460330       -12.5262
  29   2.0000      -0.458026       -12.4635
  30   2.0000      -0.453404       -12.3378
  31   2.0000      -0.451175       -12.2771
  32   2.0000      -0.448303       -12.1990
  33   0.0000       0.112245         3.0543
  34   0.0000       0.149178         4.0594
  35   0.0000       0.154759         4.2112
  36   0.0000       0.159158         4.3309
  37   0.0000       0.165561         4.5051

MULLIKEN ATOMIC CHARGES
-----------------------
   0 C :   -0.266294
   1 H :    0.166341
   2 H :    0.210417
   3 H :    0.172221
   4 C :   -0.088896
   5 N :   -0.194705
   6 C :   -0.292595
   7 H :    0.160558
   8 H :    0.197843
   9 H :    0.177458
  10 C :   -0.125665
  11 N :   -0.116628
  12 C :   -0.291972
  13 H :    0.157600
  14 H :    0.176594
  15 H :    0.201844
  16 C :   -0.113817
  17 N :   -0.130306
Sum of atomic charges:   -0.0000000

LOEWDIN ATOMIC CHARGES
----------------------
   0 C :   -0.282753
   1 H :    0.149948
   2 H :    0.160665
   3 H :    0.155423
   4 C :   -0.202633
   5 N :    0.014561
   6 C :   -0.286226
   7 H :    0.149009
   8 H :    0.154305
   9 H :    0.152788
  10 C :   -0.214669
  11 N :    0.049395
  12 C :   -0.286567
  13 H :    0.148754
  14 H :    0.151428
  15 H :    0.155284
  16 C :   -0.212649
  17 N :    0.043937

  Mayer bond orders larger than 0.100000
B(  0-C ,  1-H ) :   0.9082 B(  0-C ,  2-H ) :   0.8991 B(  0-C ,  3-H ) :   0.9124
B(  0-C ,  4-C ) :   0.9096 B(  4-C ,  5-N ) :   2.7253 B(  6-C ,  7-H ) :   0.9222
B(  6-C ,  8-H ) :   0.9081 B(  6-C ,  9-H ) :   0.9096 B(  6-C , 10-C ) :   0.8955
B( 10-C , 11-N ) :   2.7902 B( 12-C , 13-H ) :   0.9193 B( 12-C , 14-H ) :   0.9107
B( 12-C , 15-H ) :   0.9073 B( 12-C , 16-C ) :   0.8978 B( 16-C , 17-N ) :   2.7699

MP2 TOTAL ENERGY:     -397.466635958 Eh
FINAL SINGLE POINT ENERGY      -397.466635958187

DIPOLE MOMENT
-------------
                                X             Y             Z
Electronic contribution:      0.14956       0.06029       3.28958
Nuclear contribution   :     -0.21921      -0.07904      -4.64822
                        -----------------------------------------
Total Dipole Moment    :     -0.06965      -0.01875      -1.35864
                        -----------------------------------------
Magnitude (a.u.)       :      1.36056
Magnitude (Debye)      :      3.45826

Rotational constants in cm-1:     0.045320     0.039213     0.031003
Rotational constants in MHz :  1358.673161  1175.566351   929.437011

                             ****ORCA TERMINATED NORMALLY****
TOTAL RUN TIME: 0 days 0 hours 4 minutes 57 seconds 64 msec
