                         Program Version 4.2.0 -  RELEASE  -
|  1> # 12h2o.su.etal.mol3,6,7,10
|  2> ! MP2 def2-TZVP EnGrad TightSCF
|  3>
|  4> %pal
|  5>     nprocs 6
|  6> end
|  7>
|  8> %maxcore 8000
|  9>
| 10> %scf
| 11>     ConvForced true
| 12> end
| 13>
| 14> *xyz 0 1
| 15> O  -1.752130000  -0.741530000  -2.896280000
| 16> H  -2.036450000  -0.920500000  -1.984040000
| 17> H  -0.921210000  -1.242140000  -2.984230000
| 18> O   1.737840000   0.885520000  -0.052730000
| 19> H   2.090180000   1.032320000   0.841890000
| 20> H   0.839590000   1.284090000  -0.017130000
| 21> O  -1.737840000  -0.885520000  -0.052730000
| 22> H  -2.090180000  -1.032320000   0.841890000
| 23> H  -0.839590000  -1.284090000  -0.017130000
| 24> O  -0.923410000   1.794470000  -2.768350000
| 25> H  -1.359750000   2.338250000  -3.430940000
| 26> H  -1.303000000   0.879480000  -2.865760000
| 27> *
| 28>
| 29>                          ****END OF INPUT****

CARTESIAN COORDINATES (ANGSTROEM)
---------------------------------
  O     -1.752130   -0.741530   -2.896280
  H     -2.036450   -0.920500   -1.984040
  H     -0.921210   -1.242140   -2.984230
  O      1.737840    0.885520   -0.052730
  H      2.090180    1.032320    0.841890
  H      0.839590    1.284090   -0.017130
  O     -1.737840   -0.885520   -0.052730
  H     -2.090180   -1.032320    0.841890
  H     -0.839590   -1.284090   -0.017130
  O     -0.923410    1.794470   -2.768350
  H     -1.359750    2.338250   -3.430940
  H     -1.303000    0.879480   -2.865760

 Total Charge           Charge          ....    0
 Multiplicity           Mult            ....    1
 Number of Electrons    NEL             ....   40
 Basis Dimension        Dim             ....  172

ORBITAL ENERGIES
----------------

  NO   OCC          E(Eh)            E(eV)
   0   2.0000     -20.597139      -560.4766
   1   2.0000     -20.567197      -559.6619
   2   2.0000     -20.557040      -559.3855
   3   2.0000     -20.505299      -557.9776
   4   2.0000      -1.376303       -37.4511
   5   2.0000      -1.354407       -36.8553
   6   2.0000      -1.332923       -36.2707
   7   2.0000      -1.287370       -35.0311
   8   2.0000      -0.739468       -20.1220
   9   2.0000      -0.715600       -19.4725
  10   2.0000      -0.694293       -18.8927
  11   2.0000      -0.676000       -18.3949
  12   2.0000      -0.623081       -16.9549
  13   2.0000      -0.586111       -15.9489
  14   2.0000      -0.572441       -15.5769
  15   2.0000      -0.541378       -14.7316
  16   2.0000      -0.537625       -14.6295
  17   2.0000      -0.499953       -13.6044
  18   2.0000      -0.494420       -13.4538
  19   2.0000      -0.455728       -12.4010
  20   0.0000       0.096192         2.6175
  21   0.0000       0.144358         3.9282
  22   0.0000       0.151594         4.1251
  23   0.0000       0.179384         4.8813
  24   0.0000       0.203875         5.5477

MULLIKEN ATOMIC CHARGES
-----------------------
   0 O :   -0.692518
   1 H :    0.383451
   2 H :    0.345028
   3 O :   -0.684319
   4 H :    0.329117
   5 H :    0.354312
   6 O :   -0.696838
   7 H :    0.353479
   8 H :    0.352448
   9 O :   -0.733314
  10 H :    0.320431
  11 H :    0.368725
Sum of atomic charges:    0.0000000

LOEWDIN ATOMIC CHARGES
----------------------
   0 O :   -0.276336
   1 H :    0.158860
   2 H :    0.169899
   3 O :   -0.338868
   4 H :    0.161521
   5 H :    0.176223
   6 O :   -0.316886
   7 H :    0.172985
   8 H :    0.176652
   9 O :   -0.373314
  10 H :    0.146685
  11 H :    0.142580

  Mayer bond orders larger than 0.100000
B(  0-O ,  1-H ) :   0.8043 B(  0-O ,  2-H ) :   0.8449 B(  3-O ,  4-H ) :   0.8565
B(  3-O ,  5-H ) :   0.8355 B(  6-O ,  7-H ) :   0.8407 B(  6-O ,  8-H ) :   0.8340
B(  9-O , 10-H ) :   0.8628 B(  9-O , 11-H ) :   0.7806

MP2 TOTAL ENERGY:     -305.269883026 Eh
FINAL SINGLE POINT ENERGY      -305.269883026091

DIPOLE MOMENT
-------------
                                X             Y             Z
Electronic contribution:     -0.08281      -0.14891      -0.09547
Nuclear contribution   :     -0.22418      -0.87464       1.60207
                        -----------------------------------------
Total Dipole Moment    :     -0.30699      -1.02355       1.50660
                        -----------------------------------------
Magnitude (a.u.)       :      1.84709
Magnitude (Debye)      :      4.69493

Rotational constants in cm-1:     0.101306     0.068806     0.046292
Rotational constants in MHz :  3037.073832  2062.763418  1387.791243

                             ****ORCA TERMINATED NORMALLY****
TOTAL RUN TIME: 0 days 0 hours 0 minutes 18 seconds 598 msec
