                         Program Version 4.2.0 -  RELEASE  -
|  1> # 12mecn.remya.etal.2.mol2,6,11
|  2> ! MP2 def2-TZVP EnGrad TightSCF
|  3>
|  4> %pal
|  5>     nprocs 6
|  6> end
|  7>
|  8> %maxcore 8000
|  9>
| 10> %scf
| 11>     ConvForced true
| 12> end
| 13>
| 14> *xyz 0 1
| 15> C  -4.219070000  -3.477410000  -1.501740000
| 16> H  -3.251530000  -3.803540000  -1.893830000
| 17> H  -4.452920000  -2.481700000  -1.890840000
| 18> H  -4.992170000  -4.178130000  -1.824640000
| 19> C  -4.154550000  -3.418790000  -0.058340000
| 20> N  -4.091140000  -3.354840000   1.104432000
| 21> C   5.300864000  -2.920090000   1.401103000
| 22> H   5.986071000  -2.139770000   1.737487000
| 23> H   5.636642000  -3.888750000   1.778233000
| 24> H   4.307359000  -2.697240000   1.799307000
| 25> C   5.234791000  -2.933140000  -0.043290000
| 26> N   5.170868000  -2.941760000  -1.207750000
| 27> C   4.214163000   3.378139000   1.593627000
| 28> H   3.242643000   3.657109000   2.012358000
| 29> H   4.969258000   4.086643000   1.941290000
| 30> H   4.482966000   2.372549000   1.931698000
| 31> C   4.130759000   3.388436000   0.150192000
| 32> N   4.050180000   3.381449000  -1.013420000
| 33> *
| 34>
| 35>                          ****END OF INPUT****

CARTESIAN COORDINATES (ANGSTROEM)
---------------------------------
  C     -4.219070   -3.477410   -1.501740
  H     -3.251530   -3.803540   -1.893830
  H     -4.452920   -2.481700   -1.890840
  H     -4.992170   -4.178130   -1.824640
  C     -4.154550   -3.418790   -0.058340
  N     -4.091140   -3.354840    1.104432
  C      5.300864   -2.920090    1.401103
  H      5.986071   -2.139770    1.737487
  H      5.636642   -3.888750    1.778233
  H      4.307359   -2.697240    1.799307
  C      5.234791   -2.933140   -0.043290
  N      5.170868   -2.941760   -1.207750
  C      4.214163    3.378139    1.593627
  H      3.242643    3.657109    2.012358
  H      4.969258    4.086643    1.941290
  H      4.482966    2.372549    1.931698
  C      4.130759    3.388436    0.150192
  N      4.050180    3.381449   -1.013420

 Total Charge           Charge          ....    0
 Multiplicity           Mult            ....    1
 Number of Electrons    NEL             ....   66
 Basis Dimension        Dim             ....  333

ORBITAL ENERGIES
----------------

  NO   OCC          E(Eh)            E(eV)
   0   2.0000     -15.573553      -423.7779
   1   2.0000     -15.573366      -423.7728
   2   2.0000     -15.572983      -423.7624
   3   2.0000     -11.287019      -307.1354
   4   2.0000     -11.286249      -307.1144
   5   2.0000     -11.284203      -307.0588
   6   2.0000     -11.280221      -306.9504
   7   2.0000     -11.280094      -306.9470
   8   2.0000     -11.279974      -306.9437
   9   2.0000      -1.214822       -33.0570
  10   2.0000      -1.214800       -33.0564
  11   2.0000      -1.214751       -33.0551
  12   2.0000      -1.045063       -28.4376
  13   2.0000      -1.044967       -28.4350
  14   2.0000      -1.042957       -28.3803
  15   2.0000      -0.702241       -19.1089
  16   2.0000      -0.701860       -19.0986
  17   2.0000      -0.699853       -19.0440
  18   2.0000      -0.634171       -17.2567
  19   2.0000      -0.633669       -17.2430
  20   2.0000      -0.632559       -17.2128
  21   2.0000      -0.631439       -17.1823
  22   2.0000      -0.630947       -17.1689
  23   2.0000      -0.630305       -17.1515
  24   2.0000      -0.556137       -15.1332
  25   2.0000      -0.555861       -15.1257
  26   2.0000      -0.555828       -15.1248
  27   2.0000      -0.458161       -12.4672
  28   2.0000      -0.457983       -12.4624
  29   2.0000      -0.457904       -12.4602
  30   2.0000      -0.457866       -12.4592
  31   2.0000      -0.457727       -12.4554
  32   2.0000      -0.457621       -12.4525
  33   0.0000       0.104434         2.8418
  34   0.0000       0.120329         3.2743
  35   0.0000       0.125640         3.4188
  36   0.0000       0.165662         4.5079
  37   0.0000       0.170293         4.6339

MULLIKEN ATOMIC CHARGES
-----------------------
   0 C :   -0.280048
   1 H :    0.174123
   2 H :    0.172883
   3 H :    0.171920
   4 C :   -0.145592
   5 N :   -0.093286
   6 C :   -0.282987
   7 H :    0.169080
   8 H :    0.173430
   9 H :    0.172593
  10 C :   -0.144695
  11 N :   -0.087426
  12 C :   -0.279476
  13 H :    0.173390
  14 H :    0.172687
  15 H :    0.166297
  16 C :   -0.145672
  17 N :   -0.087220
Sum of atomic charges:    0.0000000

LOEWDIN ATOMIC CHARGES
----------------------
   0 C :   -0.283462
   1 H :    0.153449
   2 H :    0.153461
   3 H :    0.151099
   4 C :   -0.219019
   5 N :    0.044473
   6 C :   -0.284731
   7 H :    0.150324
   8 H :    0.151654
   9 H :    0.152817
  10 C :   -0.219300
  11 N :    0.049235
  12 C :   -0.284725
  13 H :    0.153085
  14 H :    0.151012
  15 H :    0.151218
  16 C :   -0.219998
  17 N :    0.049409

  Mayer bond orders larger than 0.100000
B(  0-C ,  1-H ) :   0.9159 B(  0-C ,  2-H ) :   0.9162 B(  0-C ,  3-H ) :   0.9165
B(  0-C ,  4-C ) :   0.9021 B(  4-C ,  5-N ) :   2.8388 B(  6-C ,  7-H ) :   0.9180
B(  6-C ,  8-H ) :   0.9159 B(  6-C ,  9-H ) :   0.9173 B(  6-C , 10-C ) :   0.9020
B( 10-C , 11-N ) :   2.8350 B( 12-C , 13-H ) :   0.9165 B( 12-C , 14-H ) :   0.9168
B( 12-C , 15-H ) :   0.9178 B( 12-C , 16-C ) :   0.9024 B( 16-C , 17-N ) :   2.8343

MP2 TOTAL ENERGY:     -397.449036476 Eh
FINAL SINGLE POINT ENERGY      -397.449036476460

DIPOLE MOMENT
-------------
                                X             Y             Z
Electronic contribution:     -0.17381       0.10346      -3.17640
Nuclear contribution   :      0.26410      -0.15860       4.65473
                        -----------------------------------------
Total Dipole Moment    :      0.09028      -0.05514       1.47834
                        -----------------------------------------
Magnitude (a.u.)       :      1.48212
Magnitude (Debye)      :      3.76724

Rotational constants in cm-1:     0.017782     0.006172     0.005011
Rotational constants in MHz :   533.096517   185.034013   150.216944

                             ****ORCA TERMINATED NORMALLY****
TOTAL RUN TIME: 0 days 0 hours 1 minutes 39 seconds 65 msec
