                         Program Version 4.2.0 -  RELEASE  -
|  1> # 12h2o.su.etal.mol3,4,6,9,11
|  2> ! MP2 def2-TZVP EnGrad TightSCF
|  3>
|  4> %pal
|  5>     nprocs 6
|  6> end
|  7>
|  8> %maxcore 8000
|  9>
| 10> %scf
| 11>     ConvForced true
| 12> end
| 13>
| 14> *xyz 0 1
| 15> O  -1.752130000  -0.741530000  -2.896280000
| 16> H  -2.036450000  -0.920500000  -1.984040000
| 17> H  -0.921210000  -1.242140000  -2.984230000
| 18> O  -0.885520000   1.737840000   0.052730000
| 19> H  -1.032320000   2.090180000  -0.841890000
| 20> H  -1.284090000   0.839590000   0.017130000
| 21> O   1.737840000   0.885520000  -0.052730000
| 22> H   2.090180000   1.032320000   0.841890000
| 23> H   0.839590000   1.284090000  -0.017130000
| 24> O   0.741530000  -1.752130000   2.896280000
| 25> H   0.920500000  -2.036450000   1.984040000
| 26> H   1.242140000  -0.921210000   2.984230000
| 27> O  -0.741530000   1.752130000   2.896280000
| 28> H  -0.920500000   2.036450000   1.984040000
| 29> H  -1.242140000   0.921210000   2.984230000
| 30> *
| 31>
| 32>                          ****END OF INPUT****

CARTESIAN COORDINATES (ANGSTROEM)
---------------------------------
  O     -1.752130   -0.741530   -2.896280
  H     -2.036450   -0.920500   -1.984040
  H     -0.921210   -1.242140   -2.984230
  O     -0.885520    1.737840    0.052730
  H     -1.032320    2.090180   -0.841890
  H     -1.284090    0.839590    0.017130
  O      1.737840    0.885520   -0.052730
  H      2.090180    1.032320    0.841890
  H      0.839590    1.284090   -0.017130
  O      0.741530   -1.752130    2.896280
  H      0.920500   -2.036450    1.984040
  H      1.242140   -0.921210    2.984230
  O     -0.741530    1.752130    2.896280
  H     -0.920500    2.036450    1.984040
  H     -1.242140    0.921210    2.984230

 Total Charge           Charge          ....    0
 Multiplicity           Mult            ....    1
 Number of Electrons    NEL             ....   50
 Basis Dimension        Dim             ....  215

ORBITAL ENERGIES
----------------

  NO   OCC          E(Eh)            E(eV)
   0   2.0000     -20.627058      -561.2908
   1   2.0000     -20.586762      -560.1943
   2   2.0000     -20.566787      -559.6507
   3   2.0000     -20.551526      -559.2355
   4   2.0000     -20.545777      -559.0790
   5   2.0000      -1.409797       -38.3625
   6   2.0000      -1.365681       -37.1621
   7   2.0000      -1.345873       -36.6231
   8   2.0000      -1.333348       -36.2822
   9   2.0000      -1.326792       -36.1038
  10   2.0000      -0.768309       -20.9068
  11   2.0000      -0.728512       -19.8238
  12   2.0000      -0.709659       -19.3108
  13   2.0000      -0.707642       -19.2559
  14   2.0000      -0.701675       -19.0936
  15   2.0000      -0.645218       -17.5573
  16   2.0000      -0.602730       -16.4011
  17   2.0000      -0.591799       -16.1037
  18   2.0000      -0.583661       -15.8822
  19   2.0000      -0.566130       -15.4052
  20   2.0000      -0.545397       -14.8410
  21   2.0000      -0.530240       -14.4286
  22   2.0000      -0.511831       -13.9276
  23   2.0000      -0.497153       -13.5282
  24   2.0000      -0.493299       -13.4233
  25   0.0000       0.066455         1.8083
  26   0.0000       0.114431         3.1138
  27   0.0000       0.136543         3.7155
  28   0.0000       0.149082         4.0567
  29   0.0000       0.173425         4.7191

MULLIKEN ATOMIC CHARGES
-----------------------
   0 O :   -0.669416
   1 H :    0.324610
   2 H :    0.349412
   3 O :   -0.704189
   4 H :    0.378873
   5 H :    0.350240
   6 O :   -0.713792
   7 H :    0.331081
   8 H :    0.354159
   9 O :   -0.681934
  10 H :    0.336742
  11 H :    0.342630
  12 O :   -0.696047
  13 H :    0.367066
  14 H :    0.330567
Sum of atomic charges:    0.0000000

LOEWDIN ATOMIC CHARGES
----------------------
   0 O :   -0.327233
   1 H :    0.158137
   2 H :    0.172537
   3 O :   -0.273793
   4 H :    0.181537
   5 H :    0.175671
   6 O :   -0.358872
   7 H :    0.158313
   8 H :    0.140270
   9 O :   -0.332137
  10 H :    0.164044
  11 H :    0.165893
  12 O :   -0.335499
  13 H :    0.150167
  14 H :    0.160967

  Mayer bond orders larger than 0.100000
B(  0-O ,  1-H ) :   0.8590 B(  0-O ,  2-H ) :   0.8452 B(  3-O ,  4-H ) :   0.8217
B(  3-O ,  5-H ) :   0.8320 B(  6-O ,  7-H ) :   0.8553 B(  6-O ,  8-H ) :   0.8081
B(  9-O , 10-H ) :   0.8520 B(  9-O , 11-H ) :   0.8456 B( 12-O , 13-H ) :   0.8260
B( 12-O , 14-H ) :   0.8533

MP2 TOTAL ENERGY:     -381.581786723 Eh
FINAL SINGLE POINT ENERGY      -381.581786722678

DIPOLE MOMENT
-------------
                                X             Y             Z
Electronic contribution:     -0.13699       0.20104      -0.10269
Nuclear contribution   :     -0.45337      -0.56611      -0.68611
                        -----------------------------------------
Total Dipole Moment    :     -0.59036      -0.36507      -0.78879
                        -----------------------------------------
Magnitude (a.u.)       :      1.05071
Magnitude (Debye)      :      2.67069

Rotational constants in cm-1:     0.059004     0.030695     0.026810
Rotational constants in MHz :  1768.900869   920.217617   803.737021

                             ****ORCA TERMINATED NORMALLY****
TOTAL RUN TIME: 0 days 0 hours 0 minutes 27 seconds 183 msec
