                         Program Version 4.2.0 -  RELEASE  -
|  1> # 12h2o.su.etal.mol2,3,4,6,8,9
|  2> ! MP2 def2-TZVP EnGrad TightSCF
|  3>
|  4> %pal
|  5>     nprocs 6
|  6> end
|  7>
|  8> %maxcore 8000
|  9>
| 10> %scf
| 11>     ConvForced true
| 12> end
| 13>
| 14> *xyz 0 1
| 15> O   0.923410000  -1.794470000  -2.768350000
| 16> H   1.359750000  -2.338250000  -3.430940000
| 17> H   1.303000000  -0.879480000  -2.865760000
| 18> O  -1.752130000  -0.741530000  -2.896280000
| 19> H  -2.036450000  -0.920500000  -1.984040000
| 20> H  -0.921210000  -1.242140000  -2.984230000
| 21> O  -0.885520000   1.737840000   0.052730000
| 22> H  -1.032320000   2.090180000  -0.841890000
| 23> H  -1.284090000   0.839590000   0.017130000
| 24> O   1.737840000   0.885520000  -0.052730000
| 25> H   2.090180000   1.032320000   0.841890000
| 26> H   0.839590000   1.284090000  -0.017130000
| 27> O   1.752130000   0.741530000  -2.896280000
| 28> H   2.036450000   0.920500000  -1.984040000
| 29> H   0.921210000   1.242140000  -2.984230000
| 30> O   0.741530000  -1.752130000   2.896280000
| 31> H   0.920500000  -2.036450000   1.984040000
| 32> H   1.242140000  -0.921210000   2.984230000
| 33> *
| 34>
| 35>                          ****END OF INPUT****

CARTESIAN COORDINATES (ANGSTROEM)
---------------------------------
  O      0.923410   -1.794470   -2.768350
  H      1.359750   -2.338250   -3.430940
  H      1.303000   -0.879480   -2.865760
  O     -1.752130   -0.741530   -2.896280
  H     -2.036450   -0.920500   -1.984040
  H     -0.921210   -1.242140   -2.984230
  O     -0.885520    1.737840    0.052730
  H     -1.032320    2.090180   -0.841890
  H     -1.284090    0.839590    0.017130
  O      1.737840    0.885520   -0.052730
  H      2.090180    1.032320    0.841890
  H      0.839590    1.284090   -0.017130
  O      1.752130    0.741530   -2.896280
  H      2.036450    0.920500   -1.984040
  H      0.921210    1.242140   -2.984230
  O      0.741530   -1.752130    2.896280
  H      0.920500   -2.036450    1.984040
  H      1.242140   -0.921210    2.984230

 Total Charge           Charge          ....    0
 Multiplicity           Mult            ....    1
 Number of Electrons    NEL             ....   60
 Basis Dimension        Dim             ....  258

ORBITAL ENERGIES
----------------

  NO   OCC          E(Eh)            E(eV)
   0   2.0000     -20.614524      -560.9497
   1   2.0000     -20.578241      -559.9624
   2   2.0000     -20.574545      -559.8618
   3   2.0000     -20.566272      -559.6367
   4   2.0000     -20.545224      -559.0640
   5   2.0000     -20.543037      -559.0045
   6   2.0000      -1.395612       -37.9765
   7   2.0000      -1.369673       -37.2707
   8   2.0000      -1.354638       -36.8616
   9   2.0000      -1.345398       -36.6101
  10   2.0000      -1.332075       -36.2476
  11   2.0000      -1.321252       -35.9531
  12   2.0000      -0.752606       -20.4795
  13   2.0000      -0.735228       -20.0066
  14   2.0000      -0.723509       -19.6877
  15   2.0000      -0.711507       -19.3611
  16   2.0000      -0.708191       -19.2709
  17   2.0000      -0.693391       -18.8681
  18   2.0000      -0.640703       -17.4344
  19   2.0000      -0.617592       -16.8055
  20   2.0000      -0.598178       -16.2773
  21   2.0000      -0.582908       -15.8617
  22   2.0000      -0.578038       -15.7292
  23   2.0000      -0.556898       -15.1540
  24   2.0000      -0.547576       -14.9003
  25   2.0000      -0.524285       -14.2665
  26   2.0000      -0.513651       -13.9771
  27   2.0000      -0.510226       -13.8840
  28   2.0000      -0.495438       -13.4815
  29   2.0000      -0.489667       -13.3245
  30   0.0000       0.074348         2.0231
  31   0.0000       0.109190         2.9712
  32   0.0000       0.131350         3.5742
  33   0.0000       0.151489         4.1222
  34   0.0000       0.173907         4.7323

MULLIKEN ATOMIC CHARGES
-----------------------
   0 O :   -0.742968
   1 H :    0.338930
   2 H :    0.384458
   3 O :   -0.709936
   4 H :    0.316475
   5 H :    0.367580
   6 O :   -0.678749
   7 H :    0.359239
   8 H :    0.360465
   9 O :   -0.724973
  10 H :    0.339382
  11 H :    0.356165
  12 O :   -0.696758
  13 H :    0.391022
  14 H :    0.340717
  15 O :   -0.674021
  16 H :    0.344375
  17 H :    0.328595
Sum of atomic charges:   -0.0000000

LOEWDIN ATOMIC CHARGES
----------------------
   0 O :   -0.341307
   1 H :    0.154665
   2 H :    0.146030
   3 O :   -0.348525
   4 H :    0.152344
   5 H :    0.149601
   6 O :   -0.284842
   7 H :    0.172711
   8 H :    0.180339
   9 O :   -0.339071
  10 H :    0.163488
  11 H :    0.143421
  12 O :   -0.274415
  13 H :    0.161020
  14 H :    0.165710
  15 O :   -0.330614
  16 H :    0.167569
  17 H :    0.161878

  Mayer bond orders larger than 0.100000
B(  0-O ,  1-H ) :   0.8495 B(  0-O ,  2-H ) :   0.7558 B(  3-O ,  4-H ) :   0.8634
B(  3-O ,  5-H ) :   0.7959 B(  6-O ,  7-H ) :   0.8352 B(  6-O ,  8-H ) :   0.8302
B(  9-O , 10-H ) :   0.8487 B(  9-O , 11-H ) :   0.7789 B( 12-O , 13-H ) :   0.7945
B( 12-O , 14-H ) :   0.8442 B( 15-O , 16-H ) :   0.8481 B( 15-O , 17-H ) :   0.8574

MP2 TOTAL ENERGY:     -457.919387929 Eh
FINAL SINGLE POINT ENERGY      -457.919387929007

DIPOLE MOMENT
-------------
                                X             Y             Z
Electronic contribution:      0.01840       0.16346       0.12939
Nuclear contribution   :      0.33647       0.76350       0.05351
                        -----------------------------------------
Total Dipole Moment    :      0.35487       0.92696       0.18290
                        -----------------------------------------
Magnitude (a.u.)       :      1.00928
Magnitude (Debye)      :      2.56538

Rotational constants in cm-1:     0.044070     0.024934     0.024285
Rotational constants in MHz :  1321.191383   747.505184   728.035963

                             ****ORCA TERMINATED NORMALLY****
TOTAL RUN TIME: 0 days 0 hours 1 minutes 0 seconds 241 msec
