                         Program Version 4.2.0 -  RELEASE  -
|  1> # 12h2o.su.etal.mol1,3,4,6,8,10
|  2> ! MP2 def2-TZVP EnGrad TightSCF
|  3>
|  4> %pal
|  5>     nprocs 6
|  6> end
|  7>
|  8> %maxcore 8000
|  9>
| 10> %scf
| 11>     ConvForced true
| 12> end
| 13>
| 14> *xyz 0 1
| 15> O  -1.794470000  -0.923410000   2.768350000
| 16> H  -2.338250000  -1.359750000   3.430940000
| 17> H  -0.879480000  -1.303000000   2.865760000
| 18> O  -1.752130000  -0.741530000  -2.896280000
| 19> H  -2.036450000  -0.920500000  -1.984040000
| 20> H  -0.921210000  -1.242140000  -2.984230000
| 21> O  -0.885520000   1.737840000   0.052730000
| 22> H  -1.032320000   2.090180000  -0.841890000
| 23> H  -1.284090000   0.839590000   0.017130000
| 24> O   1.737840000   0.885520000  -0.052730000
| 25> H   2.090180000   1.032320000   0.841890000
| 26> H   0.839590000   1.284090000  -0.017130000
| 27> O   1.752130000   0.741530000  -2.896280000
| 28> H   2.036450000   0.920500000  -1.984040000
| 29> H   0.921210000   1.242140000  -2.984230000
| 30> O  -0.923410000   1.794470000  -2.768350000
| 31> H  -1.359750000   2.338250000  -3.430940000
| 32> H  -1.303000000   0.879480000  -2.865760000
| 33> *
| 34>
| 35>                          ****END OF INPUT****

CARTESIAN COORDINATES (ANGSTROEM)
---------------------------------
  O     -1.794470   -0.923410    2.768350
  H     -2.338250   -1.359750    3.430940
  H     -0.879480   -1.303000    2.865760
  O     -1.752130   -0.741530   -2.896280
  H     -2.036450   -0.920500   -1.984040
  H     -0.921210   -1.242140   -2.984230
  O     -0.885520    1.737840    0.052730
  H     -1.032320    2.090180   -0.841890
  H     -1.284090    0.839590    0.017130
  O      1.737840    0.885520   -0.052730
  H      2.090180    1.032320    0.841890
  H      0.839590    1.284090   -0.017130
  O      1.752130    0.741530   -2.896280
  H      2.036450    0.920500   -1.984040
  H      0.921210    1.242140   -2.984230
  O     -0.923410    1.794470   -2.768350
  H     -1.359750    2.338250   -3.430940
  H     -1.303000    0.879480   -2.865760

 Total Charge           Charge          ....    0
 Multiplicity           Mult            ....    1
 Number of Electrons    NEL             ....   60
 Basis Dimension        Dim             ....  258

ORBITAL ENERGIES
----------------

  NO   OCC          E(Eh)            E(eV)
   0   2.0000     -20.612050      -560.8824
   1   2.0000     -20.575661      -559.8922
   2   2.0000     -20.570941      -559.7638
   3   2.0000     -20.566711      -559.6487
   4   2.0000     -20.537832      -558.8628
   5   2.0000     -20.499036      -557.8071
   6   2.0000      -1.398348       -38.0510
   7   2.0000      -1.360052       -37.0089
   8   2.0000      -1.350922       -36.7605
   9   2.0000      -1.348037       -36.6819
  10   2.0000      -1.320495       -35.9325
  11   2.0000      -1.283880       -34.9362
  12   2.0000      -0.754155       -20.5216
  13   2.0000      -0.739292       -20.1172
  14   2.0000      -0.719443       -19.5770
  15   2.0000      -0.713079       -19.4039
  16   2.0000      -0.694104       -18.8875
  17   2.0000      -0.662913       -18.0388
  18   2.0000      -0.640508       -17.4291
  19   2.0000      -0.608795       -16.5662
  20   2.0000      -0.587546       -15.9880
  21   2.0000      -0.585034       -15.9196
  22   2.0000      -0.574008       -15.6195
  23   2.0000      -0.546677       -14.8758
  24   2.0000      -0.527262       -14.3475
  25   2.0000      -0.518951       -14.1214
  26   2.0000      -0.507620       -13.8130
  27   2.0000      -0.504683       -13.7331
  28   2.0000      -0.485822       -13.2199
  29   2.0000      -0.449075       -12.2200
  30   0.0000       0.085244         2.3196
  31   0.0000       0.115959         3.1554
  32   0.0000       0.146864         3.9964
  33   0.0000       0.156742         4.2652
  34   0.0000       0.170623         4.6429

MULLIKEN ATOMIC CHARGES
-----------------------
   0 O :   -0.687875
   1 H :    0.343142
   2 H :    0.346705
   3 O :   -0.684379
   4 H :    0.354861
   5 H :    0.379431
   6 O :   -0.688712
   7 H :    0.379149
   8 H :    0.334466
   9 O :   -0.729393
  10 H :    0.332308
  11 H :    0.358580
  12 O :   -0.735299
  13 H :    0.370338
  14 H :    0.343049
  15 O :   -0.749089
  16 H :    0.352316
  17 H :    0.380403
Sum of atomic charges:   -0.0000000

LOEWDIN ATOMIC CHARGES
----------------------
   0 O :   -0.340610
   1 H :    0.160024
   2 H :    0.182435
   3 O :   -0.266478
   4 H :    0.171818
   5 H :    0.184565
   6 O :   -0.294120
   7 H :    0.152256
   8 H :    0.166802
   9 O :   -0.345058
  10 H :    0.160401
  11 H :    0.143900
  12 O :   -0.359166
  13 H :    0.151370
  14 H :    0.138298
  15 O :   -0.312213
  16 H :    0.160135
  17 H :    0.145638

  Mayer bond orders larger than 0.100000
B(  0-O ,  1-H ) :   0.8504 B(  0-O ,  2-H ) :   0.8426 B(  3-O ,  4-H ) :   0.8386
B(  3-O ,  5-H ) :   0.8186 B(  6-O ,  7-H ) :   0.7981 B(  6-O ,  8-H ) :   0.8453
B(  9-O , 10-H ) :   0.8525 B(  9-O , 11-H ) :   0.7748 B( 12-O , 13-H ) :   0.8184
B( 12-O , 14-H ) :   0.8307 B( 15-O , 16-H ) :   0.8395 B( 15-O , 17-H ) :   0.7516

MP2 TOTAL ENERGY:     -457.921917042 Eh
FINAL SINGLE POINT ENERGY      -457.921917041695

DIPOLE MOMENT
-------------
                                X             Y             Z
Electronic contribution:     -0.28171      -0.01059      -0.24991
Nuclear contribution   :     -1.27851      -0.98858       1.37221
                        -----------------------------------------
Total Dipole Moment    :     -1.56021      -0.99916       1.12230
                        -----------------------------------------
Magnitude (a.u.)       :      2.16614
Magnitude (Debye)      :      5.50589

Rotational constants in cm-1:     0.051523     0.027124     0.022128
Rotational constants in MHz :  1544.622802   813.165310   663.378065

                             ****ORCA TERMINATED NORMALLY****
TOTAL RUN TIME: 0 days 0 hours 1 minutes 2 seconds 390 msec
