                         Program Version 4.2.0 -  RELEASE  -
|  1> # 12mecn.remya.etal.2.mol3,8,9
|  2> ! MP2 def2-TZVP EnGrad TightSCF
|  3>
|  4> %pal
|  5>     nprocs 6
|  6> end
|  7>
|  8> %maxcore 8000
|  9>
| 10> %scf
| 11>     ConvForced true
| 12> end
| 13>
| 14> *xyz 0 1
| 15> C  -5.181310000   2.853865000  -1.626100000
| 16> H  -5.488260000   3.811434000  -2.053310000
| 17> H  -5.857590000   2.068112000  -1.968630000
| 18> H  -4.170750000   2.611402000  -1.966640000
| 19> C  -5.187260000   2.919160000  -0.181450000
| 20> N  -5.181700000   2.970641000   0.983640000
| 21> C   1.912641000  -2.468050000  -1.750510000
| 22> H   2.876947000  -2.793500000  -2.151200000
| 23> H   1.688016000  -1.463720000  -2.122170000
| 24> H   1.123460000  -3.154780000  -2.069590000
| 25> C   1.977850000  -2.444240000  -0.306900000
| 26> N   2.036566000  -2.426130000   0.858249000
| 27> C   0.923766000   4.000693000  -1.575910000
| 28> H   0.011949000   4.478423000  -1.939550000
| 29> H   0.947903000   2.966558000  -1.929960000
| 30> H   1.805950000   4.519548000  -1.956520000
| 31> C   0.942834000   3.994846000  -0.131200000
| 32> N   0.960035000   3.982544000   1.035639000
| 33> *
| 34>
| 35>                          ****END OF INPUT****

CARTESIAN COORDINATES (ANGSTROEM)
---------------------------------
  C     -5.181310    2.853865   -1.626100
  H     -5.488260    3.811434   -2.053310
  H     -5.857590    2.068112   -1.968630
  H     -4.170750    2.611402   -1.966640
  C     -5.187260    2.919160   -0.181450
  N     -5.181700    2.970641    0.983640
  C      1.912641   -2.468050   -1.750510
  H      2.876947   -2.793500   -2.151200
  H      1.688016   -1.463720   -2.122170
  H      1.123460   -3.154780   -2.069590
  C      1.977850   -2.444240   -0.306900
  N      2.036566   -2.426130    0.858249
  C      0.923766    4.000693   -1.575910
  H      0.011949    4.478423   -1.939550
  H      0.947903    2.966558   -1.929960
  H      1.805950    4.519548   -1.956520
  C      0.942834    3.994846   -0.131200
  N      0.960035    3.982544    1.035639

 Total Charge           Charge          ....    0
 Multiplicity           Mult            ....    1
 Number of Electrons    NEL             ....   66
 Basis Dimension        Dim             ....  333

ORBITAL ENERGIES
----------------

  NO   OCC          E(Eh)            E(eV)
   0   2.0000     -15.574076      -423.7922
   1   2.0000     -15.573995      -423.7899
   2   2.0000     -15.573437      -423.7748
   3   2.0000     -11.288701      -307.1812
   4   2.0000     -11.288647      -307.1797
   5   2.0000     -11.288264      -307.1693
   6   2.0000     -11.280313      -306.9529
   7   2.0000     -11.280201      -306.9499
   8   2.0000     -11.279318      -306.9259
   9   2.0000      -1.215139       -33.0656
  10   2.0000      -1.215020       -33.0624
  11   2.0000      -1.213928       -33.0327
  12   2.0000      -1.047200       -28.4958
  13   2.0000      -1.046616       -28.4799
  14   2.0000      -1.046388       -28.4737
  15   2.0000      -0.703614       -19.1463
  16   2.0000      -0.703101       -19.1323
  17   2.0000      -0.702181       -19.1073
  18   2.0000      -0.637607       -17.3502
  19   2.0000      -0.635896       -17.3036
  20   2.0000      -0.635528       -17.2936
  21   2.0000      -0.634462       -17.2646
  22   2.0000      -0.633814       -17.2470
  23   2.0000      -0.633448       -17.2370
  24   2.0000      -0.555960       -15.1284
  25   2.0000      -0.555927       -15.1275
  26   2.0000      -0.554877       -15.0990
  27   2.0000      -0.458574       -12.4784
  28   2.0000      -0.458287       -12.4706
  29   2.0000      -0.458082       -12.4651
  30   2.0000      -0.458080       -12.4650
  31   2.0000      -0.457516       -12.4496
  32   2.0000      -0.456827       -12.4309
  33   0.0000       0.093985         2.5575
  34   0.0000       0.110568         3.0087
  35   0.0000       0.127561         3.4711
  36   0.0000       0.154553         4.2056
  37   0.0000       0.166400         4.5280

MULLIKEN ATOMIC CHARGES
-----------------------
   0 C :   -0.281482
   1 H :    0.172609
   2 H :    0.173001
   3 H :    0.164959
   4 C :   -0.145482
   5 N :   -0.083598
   6 C :   -0.278158
   7 H :    0.173122
   8 H :    0.164117
   9 H :    0.172511
  10 C :   -0.146495
  11 N :   -0.085098
  12 C :   -0.280194
  13 H :    0.168930
  14 H :    0.164782
  15 H :    0.173613
  16 C :   -0.144718
  17 N :   -0.082420
Sum of atomic charges:    0.0000000

LOEWDIN ATOMIC CHARGES
----------------------
   0 C :   -0.285383
   1 H :    0.151044
   2 H :    0.151516
   3 H :    0.150611
   4 C :   -0.219956
   5 N :    0.052170
   6 C :   -0.285106
   7 H :    0.152703
   8 H :    0.150102
   9 H :    0.152249
  10 C :   -0.221141
  11 N :    0.051192
  12 C :   -0.285580
  13 H :    0.149959
  14 H :    0.150677
  15 H :    0.151931
  16 C :   -0.220792
  17 N :    0.053805

  Mayer bond orders larger than 0.100000
B(  0-C ,  1-H ) :   0.9167 B(  0-C ,  2-H ) :   0.9170 B(  0-C ,  3-H ) :   0.9188
B(  0-C ,  4-C ) :   0.9026 B(  4-C ,  5-N ) :   2.8322 B(  6-C ,  7-H ) :   0.9167
B(  6-C ,  8-H ) :   0.9187 B(  6-C ,  9-H ) :   0.9168 B(  6-C , 10-C ) :   0.9014
B( 10-C , 11-N ) :   2.8326 B( 12-C , 13-H ) :   0.9180 B( 12-C , 14-H ) :   0.9195
B( 12-C , 15-H ) :   0.9166 B( 12-C , 16-C ) :   0.9016 B( 16-C , 17-N ) :   2.8302

MP2 TOTAL ENERGY:     -397.446778824 Eh
FINAL SINGLE POINT ENERGY      -397.446778824247

DIPOLE MOMENT
-------------
                                X             Y             Z
Electronic contribution:      0.15314       0.21351       9.47021
Nuclear contribution   :     -0.24154      -0.30399     -13.93325
                        -----------------------------------------
Total Dipole Moment    :     -0.08841      -0.09048      -4.46304
                        -----------------------------------------
Magnitude (a.u.)       :      4.46483
Magnitude (Debye)      :     11.34870

Rotational constants in cm-1:     0.023200     0.009335     0.007609
Rotational constants in MHz :   695.510485   279.847735   228.105554

                             ****ORCA TERMINATED NORMALLY****
TOTAL RUN TIME: 0 days 0 hours 1 minutes 55 seconds 707 msec
