                         Program Version 4.2.0 -  RELEASE  -
|  1> # 12h2o.su.etal.mol1,2,3,7,10
|  2> ! MP2 def2-TZVP EnGrad TightSCF
|  3>
|  4> %pal
|  5>     nprocs 6
|  6> end
|  7>
|  8> %maxcore 8000
|  9>
| 10> %scf
| 11>     ConvForced true
| 12> end
| 13>
| 14> *xyz 0 1
| 15> O  -1.794470000  -0.923410000   2.768350000
| 16> H  -2.338250000  -1.359750000   3.430940000
| 17> H  -0.879480000  -1.303000000   2.865760000
| 18> O   0.923410000  -1.794470000  -2.768350000
| 19> H   1.359750000  -2.338250000  -3.430940000
| 20> H   1.303000000  -0.879480000  -2.865760000
| 21> O  -1.752130000  -0.741530000  -2.896280000
| 22> H  -2.036450000  -0.920500000  -1.984040000
| 23> H  -0.921210000  -1.242140000  -2.984230000
| 24> O  -1.737840000  -0.885520000  -0.052730000
| 25> H  -2.090180000  -1.032320000   0.841890000
| 26> H  -0.839590000  -1.284090000  -0.017130000
| 27> O  -0.923410000   1.794470000  -2.768350000
| 28> H  -1.359750000   2.338250000  -3.430940000
| 29> H  -1.303000000   0.879480000  -2.865760000
| 30> *
| 31>
| 32>                          ****END OF INPUT****

CARTESIAN COORDINATES (ANGSTROEM)
---------------------------------
  O     -1.794470   -0.923410    2.768350
  H     -2.338250   -1.359750    3.430940
  H     -0.879480   -1.303000    2.865760
  O      0.923410   -1.794470   -2.768350
  H      1.359750   -2.338250   -3.430940
  H      1.303000   -0.879480   -2.865760
  O     -1.752130   -0.741530   -2.896280
  H     -2.036450   -0.920500   -1.984040
  H     -0.921210   -1.242140   -2.984230
  O     -1.737840   -0.885520   -0.052730
  H     -2.090180   -1.032320    0.841890
  H     -0.839590   -1.284090   -0.017130
  O     -0.923410    1.794470   -2.768350
  H     -1.359750    2.338250   -3.430940
  H     -1.303000    0.879480   -2.865760

 Total Charge           Charge          ....    0
 Multiplicity           Mult            ....    1
 Number of Electrons    NEL             ....   50
 Basis Dimension        Dim             ....  215

ORBITAL ENERGIES
----------------

  NO   OCC          E(Eh)            E(eV)
   0   2.0000     -20.595419      -560.4298
   1   2.0000     -20.589945      -560.2809
   2   2.0000     -20.550362      -559.2038
   3   2.0000     -20.528902      -558.6198
   4   2.0000     -20.494387      -557.6806
   5   2.0000      -1.373323       -37.3700
   6   2.0000      -1.367801       -37.2198
   7   2.0000      -1.333123       -36.2761
   8   2.0000      -1.319158       -35.8961
   9   2.0000      -1.275807       -34.7165
  10   2.0000      -0.740204       -20.1420
  11   2.0000      -0.734713       -19.9925
  12   2.0000      -0.703125       -19.1330
  13   2.0000      -0.684998       -18.6397
  14   2.0000      -0.662031       -18.0148
  15   2.0000      -0.613436       -16.6925
  16   2.0000      -0.608581       -16.5603
  17   2.0000      -0.582040       -15.8381
  18   2.0000      -0.558752       -15.2044
  19   2.0000      -0.533567       -14.5191
  20   2.0000      -0.531502       -14.4629
  21   2.0000      -0.514127       -13.9901
  22   2.0000      -0.496485       -13.5100
  23   2.0000      -0.467702       -12.7268
  24   2.0000      -0.445189       -12.1142
  25   0.0000       0.098516         2.6808
  26   0.0000       0.114993         3.1291
  27   0.0000       0.163248         4.4422
  28   0.0000       0.177744         4.8367
  29   0.0000       0.196170         5.3381

MULLIKEN ATOMIC CHARGES
-----------------------
   0 O :   -0.688974
   1 H :    0.352433
   2 H :    0.351139
   3 O :   -0.705290
   4 H :    0.353941
   5 H :    0.371640
   6 O :   -0.719556
   7 H :    0.383736
   8 H :    0.355505
   9 O :   -0.704944
  10 H :    0.373417
  11 H :    0.330586
  12 O :   -0.740352
  13 H :    0.317029
  14 H :    0.369690
Sum of atomic charges:   -0.0000000

LOEWDIN ATOMIC CHARGES
----------------------
   0 O :   -0.308018
   1 H :    0.163733
   2 H :    0.184340
   3 O :   -0.313255
   4 H :    0.164278
   5 H :    0.192484
   6 O :   -0.290937
   7 H :    0.156494
   8 H :    0.145718
   9 O :   -0.323248
  10 H :    0.153384
  11 H :    0.166909
  12 O :   -0.378000
  13 H :    0.144348
  14 H :    0.141772

  Mayer bond orders larger than 0.100000
B(  0-O ,  1-H ) :   0.8417 B(  0-O ,  2-H ) :   0.8369 B(  3-O ,  4-H ) :   0.8410
B(  3-O ,  5-H ) :   0.8214 B(  6-O ,  7-H ) :   0.8025 B(  6-O ,  8-H ) :   0.8153
B(  6-O , 14-H ) :   0.1032 B(  9-O , 10-H ) :   0.8095 B(  9-O , 11-H ) :   0.8492
B( 12-O , 13-H ) :   0.8647 B( 12-O , 14-H ) :   0.7691

MP2 TOTAL ENERGY:     -381.596417833 Eh
FINAL SINGLE POINT ENERGY      -381.596417832527

DIPOLE MOMENT
-------------
                                X             Y             Z
Electronic contribution:     -0.16627      -0.10016       0.28056
Nuclear contribution   :      1.21834      -1.69875       0.82779
                        -----------------------------------------
Total Dipole Moment    :      1.05208      -1.79891       1.10835
                        -----------------------------------------
Magnitude (a.u.)       :      2.36038
Magnitude (Debye)      :      5.99960

Rotational constants in cm-1:     0.085242     0.030896     0.025932
Rotational constants in MHz :  2555.500820   926.226853   777.413369

                             ****ORCA TERMINATED NORMALLY****
TOTAL RUN TIME: 0 days 0 hours 0 minutes 30 seconds 122 msec
