                         Program Version 4.2.0 -  RELEASE  -
|  1> # 12h2o.su.etal.mol0,1,2,6,8,9,10,11
|  2> ! MP2 def2-TZVP EnGrad TightSCF
|  3>
|  4> %pal
|  5>     nprocs 6
|  6> end
|  7>
|  8> %maxcore 8000
|  9>
| 10> %scf
| 11>     ConvForced true
| 12> end
| 13>
| 14> *xyz 0 1
| 15> O   1.794470000   0.923410000   2.768350000
| 16> H   2.338250000   1.359750000   3.430940000
| 17> H   0.879480000   1.303000000   2.865760000
| 18> O  -1.794470000  -0.923410000   2.768350000
| 19> H  -2.338250000  -1.359750000   3.430940000
| 20> H  -0.879480000  -1.303000000   2.865760000
| 21> O   0.923410000  -1.794470000  -2.768350000
| 22> H   1.359750000  -2.338250000  -3.430940000
| 23> H   1.303000000  -0.879480000  -2.865760000
| 24> O   1.737840000   0.885520000  -0.052730000
| 25> H   2.090180000   1.032320000   0.841890000
| 26> H   0.839590000   1.284090000  -0.017130000
| 27> O   1.752130000   0.741530000  -2.896280000
| 28> H   2.036450000   0.920500000  -1.984040000
| 29> H   0.921210000   1.242140000  -2.984230000
| 30> O   0.741530000  -1.752130000   2.896280000
| 31> H   0.920500000  -2.036450000   1.984040000
| 32> H   1.242140000  -0.921210000   2.984230000
| 33> O  -0.923410000   1.794470000  -2.768350000
| 34> H  -1.359750000   2.338250000  -3.430940000
| 35> H  -1.303000000   0.879480000  -2.865760000
| 36> O  -0.741530000   1.752130000   2.896280000
| 37> H  -0.920500000   2.036450000   1.984040000
| 38> H  -1.242140000   0.921210000   2.984230000
| 39> *
| 40>
| 41>                          ****END OF INPUT****

CARTESIAN COORDINATES (ANGSTROEM)
---------------------------------
  O      1.794470    0.923410    2.768350
  H      2.338250    1.359750    3.430940
  H      0.879480    1.303000    2.865760
  O     -1.794470   -0.923410    2.768350
  H     -2.338250   -1.359750    3.430940
  H     -0.879480   -1.303000    2.865760
  O      0.923410   -1.794470   -2.768350
  H      1.359750   -2.338250   -3.430940
  H      1.303000   -0.879480   -2.865760
  O      1.737840    0.885520   -0.052730
  H      2.090180    1.032320    0.841890
  H      0.839590    1.284090   -0.017130
  O      1.752130    0.741530   -2.896280
  H      2.036450    0.920500   -1.984040
  H      0.921210    1.242140   -2.984230
  O      0.741530   -1.752130    2.896280
  H      0.920500   -2.036450    1.984040
  H      1.242140   -0.921210    2.984230
  O     -0.923410    1.794470   -2.768350
  H     -1.359750    2.338250   -3.430940
  H     -1.303000    0.879480   -2.865760
  O     -0.741530    1.752130    2.896280
  H     -0.920500    2.036450    1.984040
  H     -1.242140    0.921210    2.984230

 Total Charge           Charge          ....    0
 Multiplicity           Mult            ....    1
 Number of Electrons    NEL             ....   80
 Basis Dimension        Dim             ....  344

ORBITAL ENERGIES
----------------

  NO   OCC          E(Eh)            E(eV)
   0   2.0000     -20.593882      -560.3880
   1   2.0000     -20.585031      -560.1472
   2   2.0000     -20.577710      -559.9480
   3   2.0000     -20.570303      -559.7464
   4   2.0000     -20.559750      -559.4592
   5   2.0000     -20.550817      -559.2162
   6   2.0000     -20.534468      -558.7713
   7   2.0000     -20.501219      -557.8665
   8   2.0000      -1.380954       -37.5777
   9   2.0000      -1.371752       -37.3273
  10   2.0000      -1.362981       -37.0886
  11   2.0000      -1.357543       -36.9406
  12   2.0000      -1.341337       -36.4996
  13   2.0000      -1.330979       -36.2178
  14   2.0000      -1.325220       -36.0611
  15   2.0000      -1.282556       -34.9001
  16   2.0000      -0.744195       -20.2506
  17   2.0000      -0.738675       -20.1004
  18   2.0000      -0.736397       -20.0384
  19   2.0000      -0.720087       -19.5946
  20   2.0000      -0.713931       -19.4271
  21   2.0000      -0.711637       -19.3646
  22   2.0000      -0.691105       -18.8059
  23   2.0000      -0.668676       -18.1956
  24   2.0000      -0.637859       -17.3570
  25   2.0000      -0.614837       -16.7306
  26   2.0000      -0.604826       -16.4581
  27   2.0000      -0.601502       -16.3677
  28   2.0000      -0.588422       -16.0118
  29   2.0000      -0.568348       -15.4655
  30   2.0000      -0.560507       -15.2522
  31   2.0000      -0.537462       -14.6251
  32   2.0000      -0.527681       -14.3589
  33   2.0000      -0.525575       -14.3016
  34   2.0000      -0.519188       -14.1278
  35   2.0000      -0.510984       -13.9046
  36   2.0000      -0.505430       -13.7535
  37   2.0000      -0.501417       -13.6443
  38   2.0000      -0.473596       -12.8872
  39   2.0000      -0.452136       -12.3032
  40   0.0000       0.093115         2.5338
  41   0.0000       0.116980         3.1832
  42   0.0000       0.144562         3.9337
  43   0.0000       0.149359         4.0643
  44   0.0000       0.166529         4.5315

MULLIKEN ATOMIC CHARGES
-----------------------
   0 O :   -0.757030
   1 H :    0.354278
   2 H :    0.381791
   3 O :   -0.744093
   4 H :    0.342771
   5 H :    0.380989
   6 O :   -0.743073
   7 H :    0.319137
   8 H :    0.369800
   9 O :   -0.708194
  10 H :    0.375563
  11 H :    0.326732
  12 O :   -0.718835
  13 H :    0.383786
  14 H :    0.356648
  15 O :   -0.712187
  16 H :    0.367009
  17 H :    0.376793
  18 O :   -0.707702
  19 H :    0.355694
  20 H :    0.372611
  21 O :   -0.705231
  22 H :    0.349006
  23 H :    0.383739
Sum of atomic charges:   -0.0000000

LOEWDIN ATOMIC CHARGES
----------------------
   0 O :   -0.314779
   1 H :    0.160964
   2 H :    0.145466
   3 O :   -0.341077
   4 H :    0.156501
   5 H :    0.145439
   6 O :   -0.379201
   7 H :    0.145240
   8 H :    0.141696
   9 O :   -0.323563
  10 H :    0.152237
  11 H :    0.164101
  12 O :   -0.290270
  13 H :    0.156322
  14 H :    0.146120
  15 O :   -0.282950
  16 H :    0.176786
  17 H :    0.153005
  18 O :   -0.314097
  19 H :    0.165070
  20 H :    0.192873
  21 O :   -0.280119
  22 H :    0.167527
  23 H :    0.156708

  Mayer bond orders larger than 0.100000
B(  0-O ,  1-H ) :   0.8385 B(  0-O ,  2-H ) :   0.7339 B(  2-H , 21-O ) :   0.1136
B(  3-O ,  4-H ) :   0.8474 B(  3-O ,  5-H ) :   0.7478 B(  5-H , 15-O ) :   0.1091
B(  6-O ,  7-H ) :   0.8636 B(  6-O ,  8-H ) :   0.7682 B(  8-H , 12-O ) :   0.1043
B(  9-O , 10-H ) :   0.8038 B(  9-O , 11-H ) :   0.8493 B( 12-O , 13-H ) :   0.8036
B( 12-O , 14-H ) :   0.8144 B( 15-O , 16-H ) :   0.8308 B( 15-O , 17-H ) :   0.7936
B( 18-O , 19-H ) :   0.8400 B( 18-O , 20-H ) :   0.8208 B( 21-O , 22-H ) :   0.8426
B( 21-O , 23-H ) :   0.7733

MP2 TOTAL ENERGY:     -610.585581157 Eh
FINAL SINGLE POINT ENERGY      -610.585581157209

DIPOLE MOMENT
-------------
                                X             Y             Z
Electronic contribution:      0.07095       0.15944       0.37798
Nuclear contribution   :     -0.90936       1.01960       0.08817
                        -----------------------------------------
Total Dipole Moment    :     -0.83841       1.17904       0.46615
                        -----------------------------------------
Magnitude (a.u.)       :      1.51999
Magnitude (Debye)      :      3.86351

Rotational constants in cm-1:     0.032874     0.013532     0.013015
Rotational constants in MHz :   985.539462   405.680987   390.177503

                             ****ORCA TERMINATED NORMALLY****
TOTAL RUN TIME: 0 days 0 hours 2 minutes 41 seconds 345 msec
