                         Program Version 4.2.0 -  RELEASE  -
|  1> # 12h2o.su.etal.mol0,1,3,4,5,7,8,10,11
|  2> ! MP2 def2-TZVP EnGrad TightSCF
|  3>
|  4> %pal
|  5>     nprocs 6
|  6> end
|  7>
|  8> %maxcore 8000
|  9>
| 10> %scf
| 11>     ConvForced true
| 12> end
| 13>
| 14> *xyz 0 1
| 15> O   1.794470000   0.923410000   2.768350000
| 16> H   2.338250000   1.359750000   3.430940000
| 17> H   0.879480000   1.303000000   2.865760000
| 18> O  -1.794470000  -0.923410000   2.768350000
| 19> H  -2.338250000  -1.359750000   3.430940000
| 20> H  -0.879480000  -1.303000000   2.865760000
| 21> O  -1.752130000  -0.741530000  -2.896280000
| 22> H  -2.036450000  -0.920500000  -1.984040000
| 23> H  -0.921210000  -1.242140000  -2.984230000
| 24> O  -0.885520000   1.737840000   0.052730000
| 25> H  -1.032320000   2.090180000  -0.841890000
| 26> H  -1.284090000   0.839590000   0.017130000
| 27> O   0.885520000  -1.737840000   0.052730000
| 28> H   1.284090000  -0.839590000   0.017130000
| 29> H   1.032320000  -2.090180000  -0.841890000
| 30> O  -1.737840000  -0.885520000  -0.052730000
| 31> H  -2.090180000  -1.032320000   0.841890000
| 32> H  -0.839590000  -1.284090000  -0.017130000
| 33> O   1.752130000   0.741530000  -2.896280000
| 34> H   2.036450000   0.920500000  -1.984040000
| 35> H   0.921210000   1.242140000  -2.984230000
| 36> O  -0.923410000   1.794470000  -2.768350000
| 37> H  -1.359750000   2.338250000  -3.430940000
| 38> H  -1.303000000   0.879480000  -2.865760000
| 39> O  -0.741530000   1.752130000   2.896280000
| 40> H  -0.920500000   2.036450000   1.984040000
| 41> H  -1.242140000   0.921210000   2.984230000
| 42> *
| 43>
| 44>                          ****END OF INPUT****

CARTESIAN COORDINATES (ANGSTROEM)
---------------------------------
  O      1.794470    0.923410    2.768350
  H      2.338250    1.359750    3.430940
  H      0.879480    1.303000    2.865760
  O     -1.794470   -0.923410    2.768350
  H     -2.338250   -1.359750    3.430940
  H     -0.879480   -1.303000    2.865760
  O     -1.752130   -0.741530   -2.896280
  H     -2.036450   -0.920500   -1.984040
  H     -0.921210   -1.242140   -2.984230
  O     -0.885520    1.737840    0.052730
  H     -1.032320    2.090180   -0.841890
  H     -1.284090    0.839590    0.017130
  O      0.885520   -1.737840    0.052730
  H      1.284090   -0.839590    0.017130
  H      1.032320   -2.090180   -0.841890
  O     -1.737840   -0.885520   -0.052730
  H     -2.090180   -1.032320    0.841890
  H     -0.839590   -1.284090   -0.017130
  O      1.752130    0.741530   -2.896280
  H      2.036450    0.920500   -1.984040
  H      0.921210    1.242140   -2.984230
  O     -0.923410    1.794470   -2.768350
  H     -1.359750    2.338250   -3.430940
  H     -1.303000    0.879480   -2.865760
  O     -0.741530    1.752130    2.896280
  H     -0.920500    2.036450    1.984040
  H     -1.242140    0.921210    2.984230

 Total Charge           Charge          ....    0
 Multiplicity           Mult            ....    1
 Number of Electrons    NEL             ....   90
 Basis Dimension        Dim             ....  387

ORBITAL ENERGIES
----------------

  NO   OCC          E(Eh)            E(eV)
   0   2.0000     -20.619389      -561.0821
   1   2.0000     -20.604449      -560.6756
   2   2.0000     -20.585824      -560.1688
   3   2.0000     -20.573656      -559.8376
   4   2.0000     -20.564039      -559.5760
   5   2.0000     -20.540886      -558.9459
   6   2.0000     -20.537825      -558.8626
   7   2.0000     -20.526093      -558.5434
   8   2.0000     -20.509927      -558.1035
   9   2.0000      -1.400290       -38.1038
  10   2.0000      -1.387001       -37.7422
  11   2.0000      -1.377962       -37.4963
  12   2.0000      -1.360881       -37.0315
  13   2.0000      -1.349226       -36.7143
  14   2.0000      -1.332201       -36.2510
  15   2.0000      -1.322464       -35.9861
  16   2.0000      -1.310204       -35.6525
  17   2.0000      -1.290785       -35.1240
  18   2.0000      -0.765409       -20.8278
  19   2.0000      -0.743538       -20.2327
  20   2.0000      -0.741543       -20.1784
  21   2.0000      -0.731142       -19.8954
  22   2.0000      -0.729869       -19.8607
  23   2.0000      -0.701481       -19.0883
  24   2.0000      -0.691544       -18.8179
  25   2.0000      -0.689813       -18.7708
  26   2.0000      -0.676577       -18.4106
  27   2.0000      -0.652520       -17.7560
  28   2.0000      -0.632017       -17.1981
  29   2.0000      -0.620949       -16.8969
  30   2.0000      -0.603983       -16.4352
  31   2.0000      -0.593353       -16.1459
  32   2.0000      -0.588580       -16.0161
  33   2.0000      -0.567493       -15.4423
  34   2.0000      -0.555963       -15.1285
  35   2.0000      -0.552009       -15.0209
  36   2.0000      -0.539124       -14.6703
  37   2.0000      -0.530267       -14.4293
  38   2.0000      -0.524183       -14.2637
  39   2.0000      -0.515078       -14.0160
  40   2.0000      -0.506365       -13.7789
  41   2.0000      -0.488367       -13.2892
  42   2.0000      -0.481188       -13.0938
  43   2.0000      -0.475475       -12.9383
  44   2.0000      -0.460803       -12.5391
  45   0.0000       0.084220         2.2917
  46   0.0000       0.105264         2.8644
  47   0.0000       0.142726         3.8838
  48   0.0000       0.146666         3.9910
  49   0.0000       0.170555         4.6410

MULLIKEN ATOMIC CHARGES
-----------------------
   0 O :   -0.747689
   1 H :    0.323279
   2 H :    0.371633
   3 O :   -0.725716
   4 H :    0.367121
   5 H :    0.385639
   6 O :   -0.698220
   7 H :    0.392802
   8 H :    0.346709
   9 O :   -0.750762
  10 H :    0.368833
  11 H :    0.345165
  12 O :   -0.691505
  13 H :    0.378943
  14 H :    0.354524
  15 O :   -0.751222
  16 H :    0.384292
  17 H :    0.356454
  18 O :   -0.715623
  19 H :    0.330705
  20 H :    0.366109
  21 O :   -0.751627
  22 H :    0.348802
  23 H :    0.386129
  24 O :   -0.718442
  25 H :    0.389117
  26 H :    0.354550
Sum of atomic charges:   -0.0000000

LOEWDIN ATOMIC CHARGES
----------------------
   0 O :   -0.380890
   1 H :    0.147676
   2 H :    0.142023
   3 O :   -0.288207
   4 H :    0.169554
   5 H :    0.197474
   6 O :   -0.273633
   7 H :    0.159206
   8 H :    0.168468
   9 O :   -0.349000
  10 H :    0.147861
  11 H :    0.135924
  12 O :   -0.286726
  13 H :    0.185968
  14 H :    0.170551
  15 O :   -0.303092
  16 H :    0.153482
  17 H :    0.140792
  18 O :   -0.348663
  19 H :    0.158060
  20 H :    0.148246
  21 O :   -0.313271
  22 H :    0.158577
  23 H :    0.146864
  24 O :   -0.289621
  25 H :    0.157946
  26 H :    0.144433

  Mayer bond orders larger than 0.100000
B(  0-O ,  1-H ) :   0.8613 B(  0-O ,  2-H ) :   0.7636 B(  2-H , 24-O ) :   0.1069
B(  3-O ,  4-H ) :   0.8307 B(  3-O ,  5-H ) :   0.8085 B(  6-O ,  7-H ) :   0.7932
B(  6-O ,  8-H ) :   0.8401 B(  9-O , 10-H ) :   0.8115 B(  9-O , 11-H ) :   0.7877
B( 12-O , 13-H ) :   0.8125 B( 12-O , 14-H ) :   0.8377 B( 15-O , 16-H ) :   0.8020
B( 15-O , 17-H ) :   0.7676 B( 18-O , 19-H ) :   0.8546 B( 18-O , 20-H ) :   0.8063
B( 21-O , 22-H ) :   0.8412 B( 21-O , 23-H ) :   0.7420 B( 24-O , 25-H ) :   0.7932
B( 24-O , 26-H ) :   0.8228

MP2 TOTAL ENERGY:     -686.913375130 Eh
FINAL SINGLE POINT ENERGY      -686.913375129602

DIPOLE MOMENT
-------------
                                X             Y             Z
Electronic contribution:     -0.35451      -0.33909      -0.09357
Nuclear contribution   :     -0.79041      -1.21789       0.54442
                        -----------------------------------------
Total Dipole Moment    :     -1.14492      -1.55699       0.45085
                        -----------------------------------------
Magnitude (a.u.)       :      1.98452
Magnitude (Debye)      :      5.04424

Rotational constants in cm-1:     0.028575     0.015062     0.013874
Rotational constants in MHz :   856.670332   451.562212   415.937667

                             ****ORCA TERMINATED NORMALLY****
TOTAL RUN TIME: 0 days 0 hours 4 minutes 43 seconds 294 msec
