                         Program Version 4.2.0 -  RELEASE  -
|  1> # 12h2o.su.etal.mol4,5,6
|  2> ! MP2 def2-TZVP EnGrad TightSCF
|  3>
|  4> %pal
|  5>     nprocs 6
|  6> end
|  7>
|  8> %maxcore 8000
|  9>
| 10> %scf
| 11>     ConvForced true
| 12> end
| 13>
| 14> *xyz 0 1
| 15> O  -0.885520000   1.737840000   0.052730000
| 16> H  -1.032320000   2.090180000  -0.841890000
| 17> H  -1.284090000   0.839590000   0.017130000
| 18> O   0.885520000  -1.737840000   0.052730000
| 19> H   1.284090000  -0.839590000   0.017130000
| 20> H   1.032320000  -2.090180000  -0.841890000
| 21> O   1.737840000   0.885520000  -0.052730000
| 22> H   2.090180000   1.032320000   0.841890000
| 23> H   0.839590000   1.284090000  -0.017130000
| 24> *
| 25>
| 26>                          ****END OF INPUT****

CARTESIAN COORDINATES (ANGSTROEM)
---------------------------------
  O     -0.885520    1.737840    0.052730
  H     -1.032320    2.090180   -0.841890
  H     -1.284090    0.839590    0.017130
  O      0.885520   -1.737840    0.052730
  H      1.284090   -0.839590    0.017130
  H      1.032320   -2.090180   -0.841890
  O      1.737840    0.885520   -0.052730
  H      2.090180    1.032320    0.841890
  H      0.839590    1.284090   -0.017130

 Total Charge           Charge          ....    0
 Multiplicity           Mult            ....    1
 Number of Electrons    NEL             ....   30
 Basis Dimension        Dim             ....  129

ORBITAL ENERGIES
----------------

  NO   OCC          E(Eh)            E(eV)
   0   2.0000     -20.602892      -560.6332
   1   2.0000     -20.561013      -559.4936
   2   2.0000     -20.525710      -558.5330
   3   2.0000      -1.384143       -37.6645
   4   2.0000      -1.346517       -36.6406
   5   2.0000      -1.306257       -35.5451
   6   2.0000      -0.740856       -20.1597
   7   2.0000      -0.716026       -19.4841
   8   2.0000      -0.680812       -18.5258
   9   2.0000      -0.625777       -17.0283
  10   2.0000      -0.592988       -16.1360
  11   2.0000      -0.556691       -15.1483
  12   2.0000      -0.534682       -14.5494
  13   2.0000      -0.499717       -13.5980
  14   2.0000      -0.474167       -12.9027
  15   0.0000       0.104699         2.8490
  16   0.0000       0.154303         4.1988
  17   0.0000       0.172226         4.6865
  18   0.0000       0.193302         5.2600
  19   0.0000       0.303624         8.2620

MULLIKEN ATOMIC CHARGES
-----------------------
   0 O :   -0.687688
   1 H :    0.358377
   2 H :    0.367823
   3 O :   -0.721454
   4 H :    0.353585
   5 H :    0.325402
   6 O :   -0.711798
   7 H :    0.349947
   8 H :    0.365807
Sum of atomic charges:    0.0000000

LOEWDIN ATOMIC CHARGES
----------------------
   0 O :   -0.288765
   1 H :    0.173879
   2 H :    0.183754
   3 O :   -0.366495
   4 H :    0.139885
   5 H :    0.156760
   6 O :   -0.311242
   7 H :    0.167629
   8 H :    0.144596

  Mayer bond orders larger than 0.100000
B(  0-O ,  1-H ) :   0.8372 B(  0-O ,  2-H ) :   0.8253 B(  3-O ,  4-H ) :   0.7906
B(  3-O ,  5-H ) :   0.8598 B(  6-O ,  7-H ) :   0.8427 B(  6-O ,  8-H ) :   0.7828

MP2 TOTAL ENERGY:     -228.958542544 Eh
FINAL SINGLE POINT ENERGY      -228.958542543945

DIPOLE MOMENT
-------------
                                X             Y             Z
Electronic contribution:     -0.11090       0.27255       0.13590
Nuclear contribution   :     -0.45439       0.45394      -0.77428
                        -----------------------------------------
Total Dipole Moment    :     -0.56530       0.72649      -0.63838
                        -----------------------------------------
Magnitude (a.u.)       :      1.12021
Magnitude (Debye)      :      2.84735

Rotational constants in cm-1:     0.343861     0.121165     0.091816
Rotational constants in MHz : 10308.701716  3632.429811  2752.564228

                             ****ORCA TERMINATED NORMALLY****
TOTAL RUN TIME: 0 days 0 hours 0 minutes 16 seconds 422 msec
