                         Program Version 3.0.3 - RELEASE   -
|  1> ! wB97X-D3 Def2-TZVP def2-TZVP/J RIJCOSX TightSCF Grid4 COSMO
|  2>
|  3> %pal nprocs 12 end
|  4>
|  5> %scf
|  6>         maxiter 400
|  7> end
|  8>
|  9> %cosmo
| 10>         SMD true
| 11>         solvent "WATER"
| 12> end
| 13>
| 14> * xyz  0  1
| 15> O  -2.097228	0.363136	-2.552636
| 16> H  -2.513469	0.834502	-1.770382
| 17> H  -1.707747	-0.448195	-2.127672
| 18> O  -0.065345	-1.886520	2.734524
| 19> H  -0.739453	-1.265903	2.347191
| 20> H  0.145605	-2.487069	1.958873
| 21> O  1.397246	0.045036	-1.275120
| 22> H  1.105519	0.744489	-1.936963
| 23> H  0.572005	-0.547680	-1.218035
| 24> O  -0.679271	3.225149	-0.411024
| 25> H  -0.361783	2.875593	-1.296801
| 26> H  -0.075969	2.758048	0.227359
| 27> O  -2.765495	1.655067	-0.277366
| 28> H  -2.016019	2.359968	-0.301437
| 29> H  -3.587284	2.150607	-0.090808
| 30> O  0.038308	1.866388	-2.630956
| 31> H  0.186057	2.246647	-3.519211
| 32> H  -0.812605	1.293562	-2.712301
| 33> O  -1.411961	-0.025130	1.255123
| 34> H  -0.584287	0.563786	1.203659
| 35> H  -2.115876	0.566458	0.846832
| 36> O  0.660058	-3.131110	0.443083
| 37> H  1.573402	-2.673243	0.330841
| 38> H  0.822739	-4.088155	0.328003
| 39> O  2.844533	-1.712229	0.233195
| 40> H  2.527518	-1.051863	-0.439862
| 41> H  2.718467	-1.216785	1.096254
| 42> O  2.062434	-0.385358	2.460739
| 43> H  1.253719	-0.978022	2.682966
| 44> H  2.576754	-0.313228	3.288905
| 45> O  -0.788246	-1.399385	-0.928290
| 46> H  -0.352056	-2.229026	-0.563542
| 47> H  -1.087372	-0.920828	-0.082379
| 48> O  0.807970	1.380868	0.949596
| 49> H  1.098310	0.910621	0.097308
| 50> H  1.368389	0.922951	1.647739
| 51> **                         ****END OF INPUT****

CARTESIAN COORDINATES (ANGSTROEM)
---------------------------------
  O     -2.097228    0.363136   -2.552636
  H     -2.513469    0.834502   -1.770382
  H     -1.707747   -0.448195   -2.127672
  O     -0.065345   -1.886520    2.734524
  H     -0.739453   -1.265903    2.347191
  H      0.145605   -2.487069    1.958873
  O      1.397246    0.045036   -1.275120
  H      1.105519    0.744489   -1.936963
  H      0.572005   -0.547680   -1.218035
  O     -0.679271    3.225149   -0.411024
  H     -0.361783    2.875593   -1.296801
  H     -0.075969    2.758048    0.227359
  O     -2.765495    1.655067   -0.277366
  H     -2.016019    2.359968   -0.301437
  H     -3.587284    2.150607   -0.090808
  O      0.038308    1.866388   -2.630956
  H      0.186057    2.246647   -3.519211
  H     -0.812605    1.293562   -2.712301
  O     -1.411961   -0.025130    1.255123
  H     -0.584287    0.563786    1.203659
  H     -2.115876    0.566458    0.846832
  O      0.660058   -3.131110    0.443083
  H      1.573402   -2.673243    0.330841
  H      0.822739   -4.088155    0.328003
  O      2.844533   -1.712229    0.233195
  H      2.527518   -1.051863   -0.439862
  H      2.718467   -1.216785    1.096254
  O      2.062434   -0.385358    2.460739
  H      1.253719   -0.978022    2.682966
  H      2.576754   -0.313228    3.288905
  O     -0.788246   -1.399385   -0.928290
  H     -0.352056   -2.229026   -0.563542
  H     -1.087372   -0.920828   -0.082379
  O      0.807970    1.380868    0.949596
  H      1.098310    0.910621    0.097308
  H      1.368389    0.922951    1.647739

 Total Charge           Charge          ....    0
 Multiplicity           Mult            ....    1
 Number of Electrons    NEL             ....  120
 Basis Dimension        Dim             ....  516

ORBITAL ENERGIES
----------------

  NO   OCC          E(Eh)            E(eV)
   0   2.0000     -19.241020      -523.5748
   1   2.0000     -19.240793      -523.5686
   2   2.0000     -19.240665      -523.5651
   3   2.0000     -19.240311      -523.5555
   4   2.0000     -19.232355      -523.3390
   5   2.0000     -19.232352      -523.3389
   6   2.0000     -19.232064      -523.3311
   7   2.0000     -19.232008      -523.3295
   8   2.0000     -19.231902      -523.3267
   9   2.0000     -19.231659      -523.3201
  10   2.0000     -19.231331      -523.3111
  11   2.0000     -19.231055      -523.3036
  12   2.0000      -1.151854       -31.3435
  13   2.0000      -1.140815       -31.0432
  14   2.0000      -1.133023       -30.8311
  15   2.0000      -1.130010       -30.7491
  16   2.0000      -1.127221       -30.6733
  17   2.0000      -1.122880       -30.5551
  18   2.0000      -1.117521       -30.4093
  19   2.0000      -1.109831       -30.2000
  20   2.0000      -1.108141       -30.1541
  21   2.0000      -1.105156       -30.0728
  22   2.0000      -1.101764       -29.9805
  23   2.0000      -1.086535       -29.5661
  24   2.0000      -0.645960       -17.5775
  25   2.0000      -0.644066       -17.5259
  26   2.0000      -0.643457       -17.5094
  27   2.0000      -0.639730       -17.4079
  28   2.0000      -0.637903       -17.3582
  29   2.0000      -0.631707       -17.1896
  30   2.0000      -0.630647       -17.1608
  31   2.0000      -0.626830       -17.0569
  32   2.0000      -0.621748       -16.9186
  33   2.0000      -0.615041       -16.7361
  34   2.0000      -0.614042       -16.7089
  35   2.0000      -0.612257       -16.6604
  36   2.0000      -0.579365       -15.7653
  37   2.0000      -0.548519       -14.9260
  38   2.0000      -0.541967       -14.7477
  39   2.0000      -0.535460       -14.5706
  40   2.0000      -0.517818       -14.0906
  41   2.0000      -0.517045       -14.0695
  42   2.0000      -0.505989       -13.7687
  43   2.0000      -0.504687       -13.7332
  44   2.0000      -0.484409       -13.1814
  45   2.0000      -0.479503       -13.0480
  46   2.0000      -0.479403       -13.0452
  47   2.0000      -0.452945       -12.3253
  48   2.0000      -0.427912       -11.6441
  49   2.0000      -0.426904       -11.6166
  50   2.0000      -0.423737       -11.5305
  51   2.0000      -0.422857       -11.5065
  52   2.0000      -0.421609       -11.4726
  53   2.0000      -0.420317       -11.4374
  54   2.0000      -0.419231       -11.4079
  55   2.0000      -0.417744       -11.3674
  56   2.0000      -0.416322       -11.3287
  57   2.0000      -0.415083       -11.2950
  58   2.0000      -0.413621       -11.2552
  59   2.0000      -0.411652       -11.2016
  60   0.0000       0.095249         2.5918
  61   0.0000       0.126210         3.4344
  62   0.0000       0.146098         3.9755
  63   0.0000       0.146530         3.9873
  64   0.0000       0.180772         4.9191

MULLIKEN ATOMIC CHARGES
-----------------------
   0 O :   -0.757627
   1 H :    0.382288
   2 H :    0.400112
   3 O :   -0.759132
   4 H :    0.399603
   5 H :    0.381043
   6 O :   -0.796818
   7 H :    0.401545
   8 H :    0.363354
   9 O :   -0.758291
  10 H :    0.381682
  11 H :    0.400326
  12 O :   -0.783655
  13 H :    0.380873
  14 H :    0.408509
  15 O :   -0.783146
  16 H :    0.408142
  17 H :    0.380193
  18 O :   -0.796238
  19 H :    0.363122
  20 H :    0.401132
  21 O :   -0.784081
  22 H :    0.381609
  23 H :    0.409267
  24 O :   -0.758470
  25 H :    0.399177
  26 H :    0.381713
  27 O :   -0.783172
  28 H :    0.381028
  29 H :    0.409178
  30 O :   -0.794615
  31 H :    0.400910
  32 H :    0.366767
  33 O :   -0.793552
  34 H :    0.365878
  35 H :    0.401347
Sum of atomic charges:   -0.0000000

LOEWDIN ATOMIC CHARGES
----------------------
   0 O :   -0.320448
   1 H :    0.150331
   2 H :    0.155746
   3 O :   -0.321500
   4 H :    0.155113
   5 H :    0.149738
   6 O :   -0.328810
   7 H :    0.151968
   8 H :    0.138863
   9 O :   -0.320890
  10 H :    0.149959
  11 H :    0.155753
  12 O :   -0.294469
  13 H :    0.152270
  14 H :    0.191092
  15 O :   -0.294183
  16 H :    0.190818
  17 H :    0.151668
  18 O :   -0.326962
  19 H :    0.139022
  20 H :    0.151331
  21 O :   -0.293363
  22 H :    0.151618
  23 H :    0.191338
  24 O :   -0.319957
  25 H :    0.154962
  26 H :    0.149988
  27 O :   -0.292935
  28 H :    0.152034
  29 H :    0.191508
  30 O :   -0.322749
  31 H :    0.151059
  32 H :    0.140369
  33 O :   -0.322297
  34 H :    0.140640
  35 H :    0.151374

  Mayer bond orders larger than 0.1
B(  0-O ,  1-H ) :   0.7912 B(  0-O ,  2-H ) :   0.8093 B(  0-O , 17-H ) :   0.1676
B(  1-H , 12-O ) :   0.1093 B(  3-O ,  4-H ) :   0.8096 B(  3-O ,  5-H ) :   0.7911
B(  3-O , 28-H ) :   0.1651 B(  5-H , 21-O ) :   0.1111 B(  6-O ,  7-H ) :   0.7714
B(  6-O ,  8-H ) :   0.7512 B(  6-O , 34-H ) :   0.1559 B(  7-H , 15-O ) :   0.1143
B(  8-H , 30-O ) :   0.1579 B(  9-O , 10-H ) :   0.7907 B(  9-O , 11-H ) :   0.8096
B(  9-O , 13-H ) :   0.1667 B( 10-H , 15-O ) :   0.1106 B( 12-O , 13-H ) :   0.7333
B( 12-O , 14-H ) :   0.8364 B( 12-O , 20-H ) :   0.1162 B( 15-O , 16-H ) :   0.8367
B( 15-O , 17-H ) :   0.7331 B( 18-O , 19-H ) :   0.7519 B( 18-O , 20-H ) :   0.7706
B( 18-O , 32-H ) :   0.1570 B( 19-H , 33-O ) :   0.1571 B( 21-O , 22-H ) :   0.7332
B( 21-O , 23-H ) :   0.8358 B( 21-O , 31-H ) :   0.1172 B( 22-H , 24-O ) :   0.1664
B( 24-O , 25-H ) :   0.8095 B( 24-O , 26-H ) :   0.7911 B( 26-H , 27-O ) :   0.1102
B( 27-O , 28-H ) :   0.7350 B( 27-O , 29-H ) :   0.8359 B( 27-O , 35-H ) :   0.1163
B( 30-O , 31-H ) :   0.7699 B( 30-O , 32-H ) :   0.7524 B( 33-O , 34-H ) :   0.7543
B( 33-O , 35-H ) :   0.7702

Dispersion correction           -0.022797870
FINAL SINGLE POINT ENERGY      -917.513856168309

DIPOLE MOMENT
-------------
                                X             Y             Z
Electronic contribution:      0.00557      -0.00285       0.00780
Nuclear contribution   :     -0.00952       0.01283      -0.00433
                        -----------------------------------------
Total Dipole Moment    :     -0.00396       0.00998       0.00347
                        -----------------------------------------
Magnitude (a.u.)       :      0.01128
Magnitude (Debye)      :      0.02867

                             ****ORCA TERMINATED NORMALLY****
TOTAL RUN TIME: 0 days 0 hours 1 minutes 33 seconds 18 msec
