                         Program Version 3.0.3 - RELEASE   -
|  1> ! wB97X-D3 MA-Def2-TZVP def2-TZVP/J RIJCOSX TightSCF Grid4
|  2>
|  3> %pal nprocs 1 end
|  4>
|  5> %scf
|  6>         maxiter 400
|  7> end
|  8>
|  9> * xyz  0  1
| 10> O  -2.118583	0.386459	-2.688626
| 11> H  -2.607491	0.793235	-1.938260
| 12> H  -1.776044	-0.448405	-2.301940
| 13> O  0.014578	-1.733358	2.768447
| 14> H  -0.715103	-1.169605	2.436971
| 15> H  0.133100	-2.391684	2.047467
| 16> O  1.406582	0.068485	-1.237847
| 17> H  1.185940	0.743440	-1.918009
| 18> H  0.590450	-0.503154	-1.230563
| 19> O  -0.746725	3.103553	-0.317320
| 20> H  -0.371126	2.850719	-1.192012
| 21> H  -0.115695	2.717275	0.326395
| 22> O  -2.878920	1.649433	-0.376965
| 23> H  -2.097144	2.294917	-0.331631
| 24> H  -3.671297	2.176191	-0.205655
| 25> O  0.015508	1.876188	-2.659761
| 26> H  0.136147	2.285650	-3.526962
| 27> H  -0.823811	1.307746	-2.739619
| 28> O  -1.426439	-0.019705	1.205544
| 29> H  -0.611267	0.549566	1.223134
| 30> H  -2.141654	0.554475	0.850803
| 31> O  0.591148	-3.124615	0.448476
| 32> H  1.489032	-2.665363	0.338420
| 33> H  0.772190	-4.073229	0.403611
| 34> O  2.807563	-1.767534	0.209744
| 35> H  2.578408	-1.084315	-0.455169
| 36> H  2.832484	-1.278471	1.061852
| 37> O  2.278001	-0.435482	2.563448
| 38> H  1.420699	-0.943561	2.741661
| 39> H  2.762375	-0.410453	3.398960
| 40> O  -0.841530	-1.377457	-1.019605
| 41> H  -0.460064	-2.222020	-0.689876
| 42> H  -1.135302	-0.929363	-0.180048
| 43> O  0.880108	1.347371	1.054640
| 44> H  1.161936	0.920743	0.199984
| 45> H  1.479515	0.955473	1.727716
| 46> **                         ****END OF INPUT****

CARTESIAN COORDINATES (ANGSTROEM)
---------------------------------
  O     -2.118583    0.386459   -2.688626
  H     -2.607491    0.793235   -1.938260
  H     -1.776044   -0.448405   -2.301940
  O      0.014578   -1.733358    2.768447
  H     -0.715103   -1.169605    2.436971
  H      0.133100   -2.391684    2.047467
  O      1.406582    0.068485   -1.237847
  H      1.185940    0.743440   -1.918009
  H      0.590450   -0.503154   -1.230563
  O     -0.746725    3.103553   -0.317320
  H     -0.371126    2.850719   -1.192012
  H     -0.115695    2.717275    0.326395
  O     -2.878920    1.649433   -0.376965
  H     -2.097144    2.294917   -0.331631
  H     -3.671297    2.176191   -0.205655
  O      0.015508    1.876188   -2.659761
  H      0.136147    2.285650   -3.526962
  H     -0.823811    1.307746   -2.739619
  O     -1.426439   -0.019705    1.205544
  H     -0.611267    0.549566    1.223134
  H     -2.141654    0.554475    0.850803
  O      0.591148   -3.124615    0.448476
  H      1.489032   -2.665363    0.338420
  H      0.772190   -4.073229    0.403611
  O      2.807563   -1.767534    0.209744
  H      2.578408   -1.084315   -0.455169
  H      2.832484   -1.278471    1.061852
  O      2.278001   -0.435482    2.563448
  H      1.420699   -0.943561    2.741661
  H      2.762375   -0.410453    3.398960
  O     -0.841530   -1.377457   -1.019605
  H     -0.460064   -2.222020   -0.689876
  H     -1.135302   -0.929363   -0.180048
  O      0.880108    1.347371    1.054640
  H      1.161936    0.920743    0.199984
  H      1.479515    0.955473    1.727716

 Total Charge           Charge          ....    0
 Multiplicity           Mult            ....    1
 Number of Electrons    NEL             ....  120
 Basis Dimension        Dim             ....  564

ORBITAL ENERGIES
----------------

  NO   OCC          E(Eh)            E(eV)
   0   2.0000     -19.252168      -523.8781
   1   2.0000     -19.251887      -523.8705
   2   2.0000     -19.251733      -523.8663
   3   2.0000     -19.251160      -523.8507
   4   2.0000     -19.237340      -523.4746
   5   2.0000     -19.236770      -523.4591
   6   2.0000     -19.236616      -523.4549
   7   2.0000     -19.235321      -523.4197
   8   2.0000     -19.234642      -523.4012
   9   2.0000     -19.231363      -523.3120
  10   2.0000     -19.231151      -523.3062
  11   2.0000     -19.230632      -523.2921
  12   2.0000      -1.159596       -31.5542
  13   2.0000      -1.151319       -31.3290
  14   2.0000      -1.144960       -31.1559
  15   2.0000      -1.142773       -31.0964
  16   2.0000      -1.138418       -30.9779
  17   2.0000      -1.132027       -30.8040
  18   2.0000      -1.127252       -30.6741
  19   2.0000      -1.119988       -30.4764
  20   2.0000      -1.118557       -30.4375
  21   2.0000      -1.116043       -30.3691
  22   2.0000      -1.112457       -30.2715
  23   2.0000      -1.101144       -29.9636
  24   2.0000      -0.663729       -18.0610
  25   2.0000      -0.659003       -17.9324
  26   2.0000      -0.656280       -17.8583
  27   2.0000      -0.654007       -17.7964
  28   2.0000      -0.649250       -17.6670
  29   2.0000      -0.643728       -17.5167
  30   2.0000      -0.642333       -17.4788
  31   2.0000      -0.638349       -17.3704
  32   2.0000      -0.630755       -17.1637
  33   2.0000      -0.624646       -16.9975
  34   2.0000      -0.623618       -16.9695
  35   2.0000      -0.620188       -16.8762
  36   2.0000      -0.579049       -15.7567
  37   2.0000      -0.553184       -15.0529
  38   2.0000      -0.542710       -14.7679
  39   2.0000      -0.536230       -14.5916
  40   2.0000      -0.519002       -14.1227
  41   2.0000      -0.513732       -13.9794
  42   2.0000      -0.513316       -13.9680
  43   2.0000      -0.511798       -13.9267
  44   2.0000      -0.487454       -13.2643
  45   2.0000      -0.485760       -13.2182
  46   2.0000      -0.479826       -13.0567
  47   2.0000      -0.454626       -12.3710
  48   2.0000      -0.438695       -11.9375
  49   2.0000      -0.437496       -11.9049
  50   2.0000      -0.435766       -11.8578
  51   2.0000      -0.434015       -11.8101
  52   2.0000      -0.427852       -11.6425
  53   2.0000      -0.425469       -11.5776
  54   2.0000      -0.424362       -11.5475
  55   2.0000      -0.419947       -11.4273
  56   2.0000      -0.419057       -11.4031
  57   2.0000      -0.416584       -11.3358
  58   2.0000      -0.416137       -11.3237
  59   2.0000      -0.414631       -11.2827
  60   0.0000       0.053101         1.4449
  61   0.0000       0.067096         1.8258
  62   0.0000       0.076990         2.0950
  63   0.0000       0.077906         2.1199
  64   0.0000       0.107785         2.9330

MULLIKEN ATOMIC CHARGES
-----------------------
   0 O :   -0.732455
   1 H :    0.407032
   2 H :    0.417285
   3 O :   -0.768978
   4 H :    0.416808
   5 H :    0.400750
   6 O :   -0.838073
   7 H :    0.413738
   8 H :    0.393548
   9 O :   -0.758460
  10 H :    0.403890
  11 H :    0.419694
  12 O :   -0.817777
  13 H :    0.415214
  14 H :    0.357986
  15 O :   -0.839689
  16 H :    0.359367
  17 H :    0.408987
  18 O :   -0.859442
  19 H :    0.411731
  20 H :    0.410760
  21 O :   -0.831168
  22 H :    0.413007
  23 H :    0.358437
  24 O :   -0.755412
  25 H :    0.415892
  26 H :    0.412772
  27 O :   -0.829271
  28 H :    0.425404
  29 H :    0.359479
  30 O :   -0.813772
  31 H :    0.405933
  32 H :    0.416705
  33 O :   -0.822797
  34 H :    0.410037
  35 H :    0.412838
Sum of atomic charges:   -0.0000000

LOEWDIN ATOMIC CHARGES
----------------------
   0 O :   -0.356380
   1 H :    0.192903
   2 H :    0.199215
   3 O :   -0.363216
   4 H :    0.198412
   5 H :    0.192644
   6 O :   -0.400325
   7 H :    0.194982
   8 H :    0.188584
   9 O :   -0.354988
  10 H :    0.194210
  11 H :    0.199510
  12 O :   -0.397008
  13 H :    0.185442
  14 H :    0.190816
  15 O :   -0.398238
  16 H :    0.191086
  17 H :    0.189801
  18 O :   -0.397937
  19 H :    0.187795
  20 H :    0.194295
  21 O :   -0.396357
  22 H :    0.190511
  23 H :    0.191018
  24 O :   -0.358363
  25 H :    0.197074
  26 H :    0.192788
  27 O :   -0.397108
  28 H :    0.192261
  29 H :    0.190768
  30 O :   -0.399659
  31 H :    0.195291
  32 H :    0.188532
  33 O :   -0.402720
  34 H :    0.188241
  35 H :    0.196120

  Mayer bond orders larger than 0.1
B(  0-O ,  1-H ) :   0.8521 B(  0-O ,  2-H ) :   0.8431 B(  0-O , 17-H ) :   0.1345
B(  3-O ,  4-H ) :   0.8379 B(  3-O ,  5-H ) :   0.8507 B(  6-O ,  7-H ) :   0.8263
B(  6-O ,  8-H ) :   0.8044 B(  9-O , 10-H ) :   0.8499 B(  9-O , 11-H ) :   0.8402
B(  9-O , 13-H ) :   0.1131 B( 12-O , 13-H ) :   0.7520 B( 12-O , 14-H ) :   0.8765
B( 15-O , 16-H ) :   0.8740 B( 15-O , 17-H ) :   0.7423 B( 18-O , 19-H ) :   0.8132
B( 18-O , 20-H ) :   0.8306 B( 21-O , 22-H ) :   0.7526 B( 21-O , 23-H ) :   0.8756
B( 22-H , 24-O ) :   0.1191 B( 24-O , 25-H ) :   0.8421 B( 24-O , 26-H ) :   0.8504
B( 27-O , 28-H ) :   0.7596 B( 27-O , 29-H ) :   0.8747 B( 30-O , 31-H ) :   0.8274
B( 30-O , 32-H ) :   0.8053 B( 33-O , 34-H ) :   0.8067 B( 33-O , 35-H ) :   0.8250

Dispersion correction           -0.022208453
FINAL SINGLE POINT ENERGY      -917.487639342762

DIPOLE MOMENT
-------------
                                X             Y             Z
Electronic contribution:     -0.01068       0.00148      -0.03574
Nuclear contribution   :      0.04469       0.06919       0.12226
                        -----------------------------------------
Total Dipole Moment    :      0.03402       0.07067       0.08652
                        -----------------------------------------
Magnitude (a.u.)       :      0.11678
Magnitude (Debye)      :      0.29683

                             ****ORCA TERMINATED NORMALLY****
TOTAL RUN TIME: 0 days 0 hours 15 minutes 4 seconds 8 msec
