                         Program Version 3.0.3 - RELEASE   -
|  1> ! wB97X-D3 Def2-TZVP def2-TZVP/J RIJCOSX TightSCF Grid4
|  2>
|  3> %pal nprocs 12 end
|  4>
|  5> %scf
|  6>         maxiter 400
|  7> end
|  8>
|  9> * xyz  0  1
| 10> O  -2.043123	0.390282	-2.542485
| 11> H  -2.507328	0.830970	-1.774793
| 12> H  -1.694074	-0.450275	-2.137401
| 13> O  -0.022762	-1.842890	2.721333
| 14> H  -0.739013	-1.253192	2.358862
| 15> H  0.142864	-2.483379	1.973070
| 16> O  1.400617	0.046934	-1.253858
| 17> H  1.147397	0.727900	-1.942315
| 18> H  0.573244	-0.545032	-1.211409
| 19> O  -0.716870	3.179492	-0.403469
| 20> H  -0.364311	2.878712	-1.288911
| 21> H  -0.085770	2.755726	0.239896
| 22> O  -2.778579	1.671272	-0.253443
| 23> H  -1.985128	2.355472	-0.294103
| 24> H  -3.579791	2.199491	-0.082931
| 25> O  0.046656	1.859587	-2.661741
| 26> H  0.154765	2.225434	-3.558493
| 27> H  -0.819226	1.269351	-2.694211
| 28> O  -1.400271	-0.043906	1.249855
| 29> H  -0.580752	0.557831	1.200770
| 30> H  -2.125092	0.543063	0.887143
| 31> O  0.664291	-3.155003	0.421566
| 32> H  1.574181	-2.646782	0.320208
| 33> H  0.867194	-4.101811	0.311160
| 34> O  2.784698	-1.734420	0.229766
| 35> H  2.523818	-1.059002	-0.454367
| 36> H  2.718591	-1.223779	1.085471
| 37> O  2.061938	-0.370804	2.486323
| 38> H  1.227557	-0.975519	2.666782
| 39> H  2.551886	-0.325852	3.327584
| 40> O  -0.788634	-1.389726	-0.938354
| 41> H  -0.388407	-2.241707	-0.598624
| 42> H  -1.089942	-0.923155	-0.085412
| 43> O  0.795248	1.387809	0.945846
| 44> H  1.099828	0.916932	0.097358
| 45> H  1.371867	0.973121	1.650729
| 46> **                         ****END OF INPUT****

CARTESIAN COORDINATES (ANGSTROEM)
---------------------------------
  O     -2.043123    0.390282   -2.542485
  H     -2.507328    0.830970   -1.774793
  H     -1.694074   -0.450275   -2.137401
  O     -0.022762   -1.842890    2.721333
  H     -0.739013   -1.253192    2.358862
  H      0.142864   -2.483379    1.973070
  O      1.400617    0.046934   -1.253858
  H      1.147397    0.727900   -1.942315
  H      0.573244   -0.545032   -1.211409
  O     -0.716870    3.179492   -0.403469
  H     -0.364311    2.878712   -1.288911
  H     -0.085770    2.755726    0.239896
  O     -2.778579    1.671272   -0.253443
  H     -1.985128    2.355472   -0.294103
  H     -3.579791    2.199491   -0.082931
  O      0.046656    1.859587   -2.661741
  H      0.154765    2.225434   -3.558493
  H     -0.819226    1.269351   -2.694211
  O     -1.400271   -0.043906    1.249855
  H     -0.580752    0.557831    1.200770
  H     -2.125092    0.543063    0.887143
  O      0.664291   -3.155003    0.421566
  H      1.574181   -2.646782    0.320208
  H      0.867194   -4.101811    0.311160
  O      2.784698   -1.734420    0.229766
  H      2.523818   -1.059002   -0.454367
  H      2.718591   -1.223779    1.085471
  O      2.061938   -0.370804    2.486323
  H      1.227557   -0.975519    2.666782
  H      2.551886   -0.325852    3.327584
  O     -0.788634   -1.389726   -0.938354
  H     -0.388407   -2.241707   -0.598624
  H     -1.089942   -0.923155   -0.085412
  O      0.795248    1.387809    0.945846
  H      1.099828    0.916932    0.097358
  H      1.371867    0.973121    1.650729

 Total Charge           Charge          ....    0
 Multiplicity           Mult            ....    1
 Number of Electrons    NEL             ....  120
 Basis Dimension        Dim             ....  516

ORBITAL ENERGIES
----------------

  NO   OCC          E(Eh)            E(eV)
   0   2.0000     -19.249405      -523.8029
   1   2.0000     -19.249101      -523.7947
   2   2.0000     -19.248803      -523.7866
   3   2.0000     -19.248576      -523.7804
   4   2.0000     -19.235059      -523.4126
   5   2.0000     -19.234860      -523.4071
   6   2.0000     -19.234653      -523.4015
   7   2.0000     -19.234618      -523.4006
   8   2.0000     -19.233752      -523.3770
   9   2.0000     -19.233648      -523.3742
  10   2.0000     -19.233594      -523.3727
  11   2.0000     -19.233552      -523.3716
  12   2.0000      -1.157032       -31.4844
  13   2.0000      -1.147240       -31.2180
  14   2.0000      -1.139463       -31.0064
  15   2.0000      -1.135681       -30.9035
  16   2.0000      -1.132757       -30.8239
  17   2.0000      -1.128197       -30.6998
  18   2.0000      -1.120528       -30.4911
  19   2.0000      -1.113360       -30.2961
  20   2.0000      -1.112738       -30.2791
  21   2.0000      -1.108549       -30.1652
  22   2.0000      -1.105531       -30.0830
  23   2.0000      -1.090548       -29.6753
  24   2.0000      -0.655879       -17.8474
  25   2.0000      -0.653377       -17.7793
  26   2.0000      -0.651966       -17.7409
  27   2.0000      -0.649247       -17.6669
  28   2.0000      -0.646004       -17.5787
  29   2.0000      -0.638255       -17.3678
  30   2.0000      -0.637288       -17.3415
  31   2.0000      -0.634925       -17.2772
  32   2.0000      -0.626813       -17.0565
  33   2.0000      -0.619496       -16.8574
  34   2.0000      -0.617885       -16.8135
  35   2.0000      -0.615528       -16.7494
  36   2.0000      -0.584539       -15.9061
  37   2.0000      -0.555492       -15.1157
  38   2.0000      -0.542787       -14.7700
  39   2.0000      -0.538958       -14.6658
  40   2.0000      -0.516945       -14.0668
  41   2.0000      -0.516746       -14.0614
  42   2.0000      -0.512954       -13.9582
  43   2.0000      -0.509711       -13.8699
  44   2.0000      -0.485585       -13.2134
  45   2.0000      -0.482863       -13.1394
  46   2.0000      -0.479608       -13.0508
  47   2.0000      -0.450673       -12.2634
  48   2.0000      -0.434763       -11.8305
  49   2.0000      -0.432888       -11.7795
  50   2.0000      -0.430994       -11.7279
  51   2.0000      -0.428582       -11.6623
  52   2.0000      -0.422775       -11.5043
  53   2.0000      -0.421652       -11.4737
  54   2.0000      -0.421427       -11.4676
  55   2.0000      -0.416632       -11.3371
  56   2.0000      -0.416202       -11.3254
  57   2.0000      -0.414383       -11.2759
  58   2.0000      -0.414291       -11.2734
  59   2.0000      -0.412653       -11.2289
  60   0.0000       0.082228         2.2375
  61   0.0000       0.104355         2.8396
  62   0.0000       0.118982         3.2377
  63   0.0000       0.119389         3.2487
  64   0.0000       0.160039         4.3549

MULLIKEN ATOMIC CHARGES
-----------------------
   0 O :   -0.690282
   1 H :    0.366984
   2 H :    0.394024
   3 O :   -0.692446
   4 H :    0.394140
   5 H :    0.365760
   6 O :   -0.762448
   7 H :    0.386849
   8 H :    0.349600
   9 O :   -0.690692
  10 H :    0.366253
  11 H :    0.394084
  12 O :   -0.771901
  13 H :    0.370224
  14 H :    0.355008
  15 O :   -0.771717
  16 H :    0.354779
  17 H :    0.369449
  18 O :   -0.762285
  19 H :    0.349345
  20 H :    0.386804
  21 O :   -0.772184
  22 H :    0.371536
  23 H :    0.355253
  24 O :   -0.691952
  25 H :    0.394015
  26 H :    0.365469
  27 O :   -0.771226
  28 H :    0.371040
  29 H :    0.355498
  30 O :   -0.764360
  31 H :    0.386564
  32 H :    0.357846
  33 O :   -0.763638
  34 H :    0.357433
  35 H :    0.387175
Sum of atomic charges:   -0.0000000

LOEWDIN ATOMIC CHARGES
----------------------
   0 O :   -0.270324
   1 H :    0.148988
   2 H :    0.156809
   3 O :   -0.271733
   4 H :    0.156616
   5 H :    0.148608
   6 O :   -0.309755
   7 H :    0.150072
   8 H :    0.136734
   9 O :   -0.270719
  10 H :    0.148638
  11 H :    0.156761
  12 O :   -0.321730
  13 H :    0.144601
  14 H :    0.163431
  15 O :   -0.321930
  16 H :    0.163208
  17 H :    0.143958
  18 O :   -0.308421
  19 H :    0.136747
  20 H :    0.149509
  21 O :   -0.321585
  22 H :    0.144667
  23 H :    0.163498
  24 O :   -0.270698
  25 H :    0.156572
  26 H :    0.148234
  27 O :   -0.320247
  28 H :    0.144981
  29 H :    0.163783
  30 O :   -0.307683
  31 H :    0.149426
  32 H :    0.138060
  33 O :   -0.307206
  34 H :    0.138476
  35 H :    0.149651

  Mayer bond orders larger than 0.1
B(  0-O ,  1-H ) :   0.8144 B(  0-O ,  2-H ) :   0.8139 B(  0-O , 17-H ) :   0.2196
B(  3-O ,  4-H ) :   0.8136 B(  3-O ,  5-H ) :   0.8149 B(  3-O , 28-H ) :   0.2163
B(  6-O ,  7-H ) :   0.7946 B(  6-O ,  8-H ) :   0.7547 B(  6-O , 34-H ) :   0.1646
B(  7-H , 15-O ) :   0.1009 B(  8-H , 30-O ) :   0.1668 B(  9-O , 10-H ) :   0.8144
B(  9-O , 11-H ) :   0.8141 B(  9-O , 13-H ) :   0.2181 B( 12-O , 13-H ) :   0.6967
B( 12-O , 14-H ) :   0.8778 B( 12-O , 20-H ) :   0.1021 B( 15-O , 16-H ) :   0.8780
B( 15-O , 17-H ) :   0.6962 B( 18-O , 19-H ) :   0.7550 B( 18-O , 20-H ) :   0.7941
B( 18-O , 32-H ) :   0.1657 B( 19-H , 33-O ) :   0.1666 B( 21-O , 22-H ) :   0.6975
B( 21-O , 23-H ) :   0.8778 B( 21-O , 31-H ) :   0.1031 B( 22-H , 24-O ) :   0.2170
B( 24-O , 25-H ) :   0.8132 B( 24-O , 26-H ) :   0.8150 B( 27-O , 28-H ) :   0.6986
B( 27-O , 29-H ) :   0.8776 B( 27-O , 35-H ) :   0.1024 B( 30-O , 31-H ) :   0.7932
B( 30-O , 32-H ) :   0.7531 B( 33-O , 34-H ) :   0.7545 B( 33-O , 35-H ) :   0.7932

Dispersion correction           -0.022851460
FINAL SINGLE POINT ENERGY      -917.467274518405

DIPOLE MOMENT
-------------
                                X             Y             Z
Electronic contribution:      0.00487      -0.00115       0.00873
Nuclear contribution   :     -0.01004       0.00605      -0.00551
                        -----------------------------------------
Total Dipole Moment    :     -0.00517       0.00490       0.00323
                        -----------------------------------------
Magnitude (a.u.)       :      0.00782
Magnitude (Debye)      :      0.01987

                             ****ORCA TERMINATED NORMALLY****
TOTAL RUN TIME: 0 days 0 hours 1 minutes 28 seconds 906 msec
