                         Program Version 4.2.0 -  RELEASE  -
|  1> # 12h2o.su.etal.mol0,1,5,6,9
|  2> ! MP2 def2-TZVP EnGrad TightSCF
|  3>
|  4> %pal
|  5>     nprocs 6
|  6> end
|  7>
|  8> %maxcore 8000
|  9>
| 10> %scf
| 11>     ConvForced true
| 12> end
| 13>
| 14> *xyz 0 1
| 15> O   1.794470000   0.923410000   2.768350000
| 16> H   2.338250000   1.359750000   3.430940000
| 17> H   0.879480000   1.303000000   2.865760000
| 18> O  -1.794470000  -0.923410000   2.768350000
| 19> H  -2.338250000  -1.359750000   3.430940000
| 20> H  -0.879480000  -1.303000000   2.865760000
| 21> O   0.885520000  -1.737840000   0.052730000
| 22> H   1.284090000  -0.839590000   0.017130000
| 23> H   1.032320000  -2.090180000  -0.841890000
| 24> O   1.737840000   0.885520000  -0.052730000
| 25> H   2.090180000   1.032320000   0.841890000
| 26> H   0.839590000   1.284090000  -0.017130000
| 27> O   0.741530000  -1.752130000   2.896280000
| 28> H   0.920500000  -2.036450000   1.984040000
| 29> H   1.242140000  -0.921210000   2.984230000
| 30> *
| 31>
| 32>                          ****END OF INPUT****

CARTESIAN COORDINATES (ANGSTROEM)
---------------------------------
  O      1.794470    0.923410    2.768350
  H      2.338250    1.359750    3.430940
  H      0.879480    1.303000    2.865760
  O     -1.794470   -0.923410    2.768350
  H     -2.338250   -1.359750    3.430940
  H     -0.879480   -1.303000    2.865760
  O      0.885520   -1.737840    0.052730
  H      1.284090   -0.839590    0.017130
  H      1.032320   -2.090180   -0.841890
  O      1.737840    0.885520   -0.052730
  H      2.090180    1.032320    0.841890
  H      0.839590    1.284090   -0.017130
  O      0.741530   -1.752130    2.896280
  H      0.920500   -2.036450    1.984040
  H      1.242140   -0.921210    2.984230

 Total Charge           Charge          ....    0
 Multiplicity           Mult            ....    1
 Number of Electrons    NEL             ....   50
 Basis Dimension        Dim             ....  215

ORBITAL ENERGIES
----------------

  NO   OCC          E(Eh)            E(eV)
   0   2.0000     -20.624192      -561.2128
   1   2.0000     -20.579879      -560.0070
   2   2.0000     -20.543696      -559.0224
   3   2.0000     -20.540176      -558.9266
   4   2.0000     -20.504769      -557.9631
   5   2.0000      -1.404783       -38.2261
   6   2.0000      -1.363919       -37.1141
   7   2.0000      -1.335574       -36.3428
   8   2.0000      -1.323115       -36.0038
   9   2.0000      -1.286202       -34.9993
  10   2.0000      -0.769988       -20.9524
  11   2.0000      -0.727671       -19.8009
  12   2.0000      -0.705374       -19.1942
  13   2.0000      -0.696362       -18.9490
  14   2.0000      -0.672654       -18.3038
  15   2.0000      -0.646341       -17.5878
  16   2.0000      -0.605414       -16.4742
  17   2.0000      -0.597097       -16.2478
  18   2.0000      -0.561002       -15.2656
  19   2.0000      -0.556329       -15.1385
  20   2.0000      -0.527551       -14.3554
  21   2.0000      -0.516237       -14.0475
  22   2.0000      -0.493426       -13.4268
  23   2.0000      -0.478222       -13.0131
  24   2.0000      -0.455587       -12.3972
  25   0.0000       0.087825         2.3898
  26   0.0000       0.139790         3.8039
  27   0.0000       0.162562         4.4235
  28   0.0000       0.173502         4.7212
  29   0.0000       0.194720         5.2986

MULLIKEN ATOMIC CHARGES
-----------------------
   0 O :   -0.723866
   1 H :    0.369275
   2 H :    0.378386
   3 O :   -0.743601
   4 H :    0.320855
   5 H :    0.369622
   6 O :   -0.724860
   7 H :    0.356526
   8 H :    0.338594
   9 O :   -0.693138
  10 H :    0.377557
  11 H :    0.349408
  12 O :   -0.715752
  13 H :    0.387166
  14 H :    0.353829
Sum of atomic charges:   -0.0000000

LOEWDIN ATOMIC CHARGES
----------------------
   0 O :   -0.288236
   1 H :    0.170334
   2 H :    0.195032
   3 O :   -0.379169
   4 H :    0.146145
   5 H :    0.141496
   6 O :   -0.341076
   7 H :    0.143539
   8 H :    0.164337
   9 O :   -0.295594
  10 H :    0.152137
  11 H :    0.175845
  12 O :   -0.287946
  13 H :    0.158780
  14 H :    0.144375

  Mayer bond orders larger than 0.100000
B(  0-O ,  1-H ) :   0.8292 B(  0-O ,  2-H ) :   0.8132 B(  3-O ,  4-H ) :   0.8628
B(  3-O ,  5-H ) :   0.7691 B(  5-H , 12-O ) :   0.1028 B(  6-O ,  7-H ) :   0.7798
B(  6-O ,  8-H ) :   0.8497 B(  9-O , 10-H ) :   0.8074 B(  9-O , 11-H ) :   0.8401
B( 12-O , 13-H ) :   0.7977 B( 12-O , 14-H ) :   0.8238

MP2 TOTAL ENERGY:     -381.606188640 Eh
FINAL SINGLE POINT ENERGY      -381.606188640128

DIPOLE MOMENT
-------------
                                X             Y             Z
Electronic contribution:      0.39120       0.08328      -0.12445
Nuclear contribution   :      0.56521       1.36331       0.57908
                        -----------------------------------------
Total Dipole Moment    :      0.95641       1.44659       0.45463
                        -----------------------------------------
Magnitude (a.u.)       :      1.79277
Magnitude (Debye)      :      4.55686

Rotational constants in cm-1:     0.080760     0.053037     0.042005
Rotational constants in MHz :  2421.111739  1590.019901  1259.280830

                             ****ORCA TERMINATED NORMALLY****
TOTAL RUN TIME: 0 days 0 hours 0 minutes 36 seconds 995 msec
