                         Program Version 4.2.0 -  RELEASE  -
|  1> # 12meoh.boyd.etal.mol2,5,6
|  2> ! MP2 def2-TZVP EnGrad TightSCF
|  3>
|  4> %pal
|  5>     nprocs 6
|  6> end
|  7>
|  8> %maxcore 8000
|  9>
| 10> %scf
| 11>     ConvForced true
| 12> end
| 13>
| 14> *xyz 0 1
| 15> O  -3.839777402   2.233595098   0.660436763
| 16> H  -2.958345897   1.907036203   0.973588449
| 17> C  -3.600368059   3.168790682  -0.390480452
| 18> H  -4.551709193   3.344148967  -0.901254863
| 19> H  -2.868237594   2.789240199  -1.113617525
| 20> H  -3.243594915   4.128998607   0.009549480
| 21> O  -0.662721750   1.449094618  -1.383082065
| 22> H   0.064188300   2.119867608  -1.465650660
| 23> C  -0.353319239   0.341218776  -2.229326771
| 24> H  -1.072358530  -0.454743281  -2.019906495
| 25> H   0.657636746  -0.044472139  -2.042736771
| 26> H  -0.434616607   0.624733901  -3.287793021
| 27> O   2.622209273  -1.703002590  -1.445859723
| 28> H   1.828551432  -1.986513781  -0.909754968
| 29> C   2.781117675  -2.615822239  -2.525472890
| 30> H   3.691063626  -2.339003544  -3.065143454
| 31> H   1.934727323  -2.559520367  -3.223226661
| 32> H   2.879948338  -3.653846211  -2.177750170
| 33> *
| 34>
| 35>                          ****END OF INPUT****

CARTESIAN COORDINATES (ANGSTROEM)
---------------------------------
  O     -3.839777    2.233595    0.660437
  H     -2.958346    1.907036    0.973588
  C     -3.600368    3.168791   -0.390480
  H     -4.551709    3.344149   -0.901255
  H     -2.868238    2.789240   -1.113618
  H     -3.243595    4.128999    0.009549
  O     -0.662722    1.449095   -1.383082
  H      0.064188    2.119868   -1.465651
  C     -0.353319    0.341219   -2.229327
  H     -1.072359   -0.454743   -2.019906
  H      0.657637   -0.044472   -2.042737
  H     -0.434617    0.624734   -3.287793
  O      2.622209   -1.703003   -1.445860
  H      1.828551   -1.986514   -0.909755
  C      2.781118   -2.615822   -2.525473
  H      3.691064   -2.339004   -3.065143
  H      1.934727   -2.559520   -3.223227
  H      2.879948   -3.653846   -2.177750

 Total Charge           Charge          ....    0
 Multiplicity           Mult            ....    1
 Number of Electrons    NEL             ....   54
 Basis Dimension        Dim             ....  258

ORBITAL ENERGIES
----------------

  NO   OCC          E(Eh)            E(eV)
   0   2.0000     -20.568280      -559.6913
   1   2.0000     -20.564492      -559.5883
   2   2.0000     -20.540419      -558.9332
   3   2.0000     -11.279945      -306.9429
   4   2.0000     -11.274677      -306.7996
   5   2.0000     -11.253138      -306.2135
   6   2.0000      -1.356360       -36.9084
   7   2.0000      -1.352737       -36.8099
   8   2.0000      -1.329645       -36.1815
   9   2.0000      -0.928270       -25.2595
  10   2.0000      -0.924889       -25.1675
  11   2.0000      -0.902379       -24.5550
  12   2.0000      -0.691049       -18.8044
  13   2.0000      -0.686968       -18.6933
  14   2.0000      -0.664662       -18.0864
  15   2.0000      -0.629204       -17.1215
  16   2.0000      -0.619524       -16.8581
  17   2.0000      -0.602544       -16.3961
  18   2.0000      -0.600446       -16.3390
  19   2.0000      -0.594274       -16.1710
  20   2.0000      -0.573458       -15.6046
  21   2.0000      -0.509516       -13.8646
  22   2.0000      -0.506899       -13.7934
  23   2.0000      -0.484251       -13.1772
  24   2.0000      -0.462231       -12.5779
  25   2.0000      -0.451494       -12.2858
  26   2.0000      -0.431856       -11.7514
  27   0.0000       0.118647         3.2286
  28   0.0000       0.130521         3.5516
  29   0.0000       0.164907         4.4873
  30   0.0000       0.169410         4.6099
  31   0.0000       0.180291         4.9060

MULLIKEN ATOMIC CHARGES
-----------------------
   0 O :   -0.507748
   1 H :    0.324450
   2 C :   -0.177675
   3 H :    0.120269
   4 H :    0.127818
   5 H :    0.098973
   6 O :   -0.507253
   7 H :    0.327302
   8 C :   -0.189074
   9 H :    0.127653
  10 H :    0.127158
  11 H :    0.112813
  12 O :   -0.495784
  13 H :    0.328212
  14 C :   -0.176535
  15 H :    0.131933
  16 H :    0.109851
  17 H :    0.117638
Sum of atomic charges:    0.0000000

LOEWDIN ATOMIC CHARGES
----------------------
   0 O :   -0.114463
   1 H :    0.188493
   2 C :   -0.383753
   3 H :    0.105902
   4 H :    0.097135
   5 H :    0.092506
   6 O :   -0.109511
   7 H :    0.190727
   8 C :   -0.380901
   9 H :    0.109070
  10 H :    0.099711
  11 H :    0.097286
  12 O :   -0.105979
  13 H :    0.192721
  14 C :   -0.382810
  15 H :    0.111276
  16 H :    0.094544
  17 H :    0.098047

  Mayer bond orders larger than 0.100000
B(  0-O ,  1-H ) :   0.8415 B(  0-O ,  2-C ) :   0.9235 B(  2-C ,  3-H ) :   0.9386
B(  2-C ,  4-H ) :   0.9328 B(  2-C ,  5-H ) :   0.9399 B(  6-O ,  7-H ) :   0.8380
B(  6-O ,  8-C ) :   0.9009 B(  8-C ,  9-H ) :   0.9361 B(  8-C , 10-H ) :   0.9298
B(  8-C , 11-H ) :   0.9374 B( 12-O , 13-H ) :   0.8366 B( 12-O , 14-C ) :   0.9169
B( 14-C , 15-H ) :   0.9381 B( 14-C , 16-H ) :   0.9373 B( 14-C , 17-H ) :   0.9393

MP2 TOTAL ENERGY:     -346.525151102 Eh
FINAL SINGLE POINT ENERGY      -346.525151102469

DIPOLE MOMENT
-------------
                                X             Y             Z
Electronic contribution:     -0.83177       1.23618       3.63611
Nuclear contribution   :      1.82703      -1.78072      -4.44315
                        -----------------------------------------
Total Dipole Moment    :      0.99526      -0.54454      -0.80703
                        -----------------------------------------
Magnitude (a.u.)       :      1.39226
Magnitude (Debye)      :      3.53884

Rotational constants in cm-1:     0.236417     0.014743     0.014364
Rotational constants in MHz :  7087.604591   441.974427   430.615141

                             ****ORCA TERMINATED NORMALLY****
TOTAL RUN TIME: 0 days 0 hours 1 minutes 14 seconds 120 msec
