                         Program Version 4.2.0 -  RELEASE  -
|  1> # 12meoh.boyd.etal.mol3,5
|  2> ! MP2 def2-TZVP EnGrad TightSCF
|  3>
|  4> %pal
|  5>     nprocs 6
|  6> end
|  7>
|  8> %maxcore 8000
|  9>
| 10> %scf
| 11>     ConvForced true
| 12> end
| 13>
| 14> *xyz 0 1
| 15> O  -3.821405976  -2.118091637   0.596795346
| 16> H  -4.342989117  -1.344303030   0.251966383
| 17> C  -3.443883586  -1.809641231   1.934889393
| 18> H  -2.831494349  -2.637429600   2.305201764
| 19> H  -4.325601146  -1.719364371   2.585074667
| 20> H  -2.858527126  -0.882644791   1.996110694
| 21> O  -0.662721750   1.449094618  -1.383082065
| 22> H   0.064188300   2.119867608  -1.465650660
| 23> C  -0.353319239   0.341218776  -2.229326771
| 24> H  -1.072358530  -0.454743281  -2.019906495
| 25> H   0.657636746  -0.044472139  -2.042736771
| 26> H  -0.434616607   0.624733901  -3.287793021
| 27> *
| 28>
| 29>                          ****END OF INPUT****

CARTESIAN COORDINATES (ANGSTROEM)
---------------------------------
  O     -3.821406   -2.118092    0.596795
  H     -4.342989   -1.344303    0.251966
  C     -3.443884   -1.809641    1.934889
  H     -2.831494   -2.637430    2.305202
  H     -4.325601   -1.719364    2.585075
  H     -2.858527   -0.882645    1.996111
  O     -0.662722    1.449095   -1.383082
  H      0.064188    2.119868   -1.465651
  C     -0.353319    0.341219   -2.229327
  H     -1.072359   -0.454743   -2.019906
  H      0.657637   -0.044472   -2.042737
  H     -0.434617    0.624734   -3.287793

 Total Charge           Charge          ....    0
 Multiplicity           Mult            ....    1
 Number of Electrons    NEL             ....   36
 Basis Dimension        Dim             ....  172

ORBITAL ENERGIES
----------------

  NO   OCC          E(Eh)            E(eV)
   0   2.0000     -20.556522      -559.3714
   1   2.0000     -20.553779      -559.2968
   2   2.0000     -11.270314      -306.6808
   3   2.0000     -11.267117      -306.5938
   4   2.0000      -1.344706       -36.5913
   5   2.0000      -1.342698       -36.5367
   6   2.0000      -0.918716       -24.9995
   7   2.0000      -0.914779       -24.8924
   8   2.0000      -0.680043       -18.5049
   9   2.0000      -0.676960       -18.4210
  10   2.0000      -0.615709       -16.7543
  11   2.0000      -0.613000       -16.6806
  12   2.0000      -0.589384       -16.0379
  13   2.0000      -0.586046       -15.9471
  14   2.0000      -0.499440       -13.5905
  15   2.0000      -0.496599       -13.5131
  16   2.0000      -0.448756       -12.2113
  17   2.0000      -0.445209       -12.1147
  18   0.0000       0.127963         3.4820
  19   0.0000       0.143447         3.9034
  20   0.0000       0.174850         4.7579
  21   0.0000       0.183684         4.9983
  22   0.0000       0.224503         6.1090

MULLIKEN ATOMIC CHARGES
-----------------------
   0 O :   -0.498256
   1 H :    0.323201
   2 C :   -0.176704
   3 H :    0.126542
   4 H :    0.108082
   5 H :    0.118434
   6 O :   -0.502570
   7 H :    0.321427
   8 C :   -0.176874
   9 H :    0.137686
  10 H :    0.110108
  11 H :    0.108924
Sum of atomic charges:    0.0000000

LOEWDIN ATOMIC CHARGES
----------------------
   0 O :   -0.111086
   1 H :    0.191494
   2 C :   -0.381840
   3 H :    0.109565
   4 H :    0.094983
   5 H :    0.097578
   6 O :   -0.114781
   7 H :    0.188336
   8 C :   -0.377146
   9 H :    0.111741
  10 H :    0.095849
  11 H :    0.095307

  Mayer bond orders larger than 0.100000
B(  0-O ,  1-H ) :   0.8416 B(  0-O ,  2-C ) :   0.9238 B(  2-C ,  3-H ) :   0.9378
B(  2-C ,  4-H ) :   0.9389 B(  2-C ,  5-H ) :   0.9383 B(  6-O ,  7-H ) :   0.8429
B(  6-O ,  8-C ) :   0.9209 B(  8-C ,  9-H ) :   0.9361 B(  8-C , 10-H ) :   0.9401
B(  8-C , 11-H ) :   0.9384

MP2 TOTAL ENERGY:     -231.014244765 Eh
FINAL SINGLE POINT ENERGY      -231.014244765278

DIPOLE MOMENT
-------------
                                X             Y             Z
Electronic contribution:     -0.90287       0.78549      -0.56856
Nuclear contribution   :      1.31898      -0.23358       0.50816
                        -----------------------------------------
Total Dipole Moment    :      0.41611       0.55191      -0.06040
                        -----------------------------------------
Magnitude (a.u.)       :      0.69383
Magnitude (Debye)      :      1.76357

Rotational constants in cm-1:     0.415662     0.036972     0.035324
Rotational constants in MHz : 12461.237984  1108.395076  1058.986868

                             ****ORCA TERMINATED NORMALLY****
TOTAL RUN TIME: 0 days 0 hours 0 minutes 20 seconds 59 msec
