                         Program Version 4.2.0 -  RELEASE  -
|  1> # 12h2o.su.etal.mol0,1,2,3,5,7,8,9,10,11
|  2> ! MP2 def2-TZVP EnGrad TightSCF
|  3>
|  4> %pal
|  5>     nprocs 6
|  6> end
|  7>
|  8> %maxcore 8000
|  9>
| 10> %scf
| 11>     ConvForced true
| 12> end
| 13>
| 14> *xyz 0 1
| 15> O   1.794470000   0.923410000   2.768350000
| 16> H   2.338250000   1.359750000   3.430940000
| 17> H   0.879480000   1.303000000   2.865760000
| 18> O  -1.794470000  -0.923410000   2.768350000
| 19> H  -2.338250000  -1.359750000   3.430940000
| 20> H  -0.879480000  -1.303000000   2.865760000
| 21> O   0.923410000  -1.794470000  -2.768350000
| 22> H   1.359750000  -2.338250000  -3.430940000
| 23> H   1.303000000  -0.879480000  -2.865760000
| 24> O  -1.752130000  -0.741530000  -2.896280000
| 25> H  -2.036450000  -0.920500000  -1.984040000
| 26> H  -0.921210000  -1.242140000  -2.984230000
| 27> O   0.885520000  -1.737840000   0.052730000
| 28> H   1.284090000  -0.839590000   0.017130000
| 29> H   1.032320000  -2.090180000  -0.841890000
| 30> O  -1.737840000  -0.885520000  -0.052730000
| 31> H  -2.090180000  -1.032320000   0.841890000
| 32> H  -0.839590000  -1.284090000  -0.017130000
| 33> O   1.752130000   0.741530000  -2.896280000
| 34> H   2.036450000   0.920500000  -1.984040000
| 35> H   0.921210000   1.242140000  -2.984230000
| 36> O   0.741530000  -1.752130000   2.896280000
| 37> H   0.920500000  -2.036450000   1.984040000
| 38> H   1.242140000  -0.921210000   2.984230000
| 39> O  -0.923410000   1.794470000  -2.768350000
| 40> H  -1.359750000   2.338250000  -3.430940000
| 41> H  -1.303000000   0.879480000  -2.865760000
| 42> O  -0.741530000   1.752130000   2.896280000
| 43> H  -0.920500000   2.036450000   1.984040000
| 44> H  -1.242140000   0.921210000   2.984230000
| 45> *
| 46>
| 47>                          ****END OF INPUT****

CARTESIAN COORDINATES (ANGSTROEM)
---------------------------------
  O      1.794470    0.923410    2.768350
  H      2.338250    1.359750    3.430940
  H      0.879480    1.303000    2.865760
  O     -1.794470   -0.923410    2.768350
  H     -2.338250   -1.359750    3.430940
  H     -0.879480   -1.303000    2.865760
  O      0.923410   -1.794470   -2.768350
  H      1.359750   -2.338250   -3.430940
  H      1.303000   -0.879480   -2.865760
  O     -1.752130   -0.741530   -2.896280
  H     -2.036450   -0.920500   -1.984040
  H     -0.921210   -1.242140   -2.984230
  O      0.885520   -1.737840    0.052730
  H      1.284090   -0.839590    0.017130
  H      1.032320   -2.090180   -0.841890
  O     -1.737840   -0.885520   -0.052730
  H     -2.090180   -1.032320    0.841890
  H     -0.839590   -1.284090   -0.017130
  O      1.752130    0.741530   -2.896280
  H      2.036450    0.920500   -1.984040
  H      0.921210    1.242140   -2.984230
  O      0.741530   -1.752130    2.896280
  H      0.920500   -2.036450    1.984040
  H      1.242140   -0.921210    2.984230
  O     -0.923410    1.794470   -2.768350
  H     -1.359750    2.338250   -3.430940
  H     -1.303000    0.879480   -2.865760
  O     -0.741530    1.752130    2.896280
  H     -0.920500    2.036450    1.984040
  H     -1.242140    0.921210    2.984230

 Total Charge           Charge          ....    0
 Multiplicity           Mult            ....    1
 Number of Electrons    NEL             ....  100
 Basis Dimension        Dim             ....  430

ORBITAL ENERGIES
----------------

  NO   OCC          E(Eh)            E(eV)
   0   2.0000     -20.592710      -560.3561
   1   2.0000     -20.583847      -560.1150
   2   2.0000     -20.579581      -559.9989
   3   2.0000     -20.570432      -559.7499
   4   2.0000     -20.563969      -559.5740
   5   2.0000     -20.554522      -559.3170
   6   2.0000     -20.553649      -559.2932
   7   2.0000     -20.540801      -558.9436
   8   2.0000     -20.539958      -558.9207
   9   2.0000     -20.527048      -558.5694
  10   2.0000      -1.384244       -37.6672
  11   2.0000      -1.376716       -37.4623
  12   2.0000      -1.366010       -37.1710
  13   2.0000      -1.358715       -36.9725
  14   2.0000      -1.354531       -36.8587
  15   2.0000      -1.341872       -36.5142
  16   2.0000      -1.338340       -36.4181
  17   2.0000      -1.330697       -36.2101
  18   2.0000      -1.318714       -35.8840
  19   2.0000      -1.310277       -35.6544
  20   2.0000      -0.747065       -20.3287
  21   2.0000      -0.740987       -20.1633
  22   2.0000      -0.734240       -19.9797
  23   2.0000      -0.731225       -19.8977
  24   2.0000      -0.721799       -19.6411
  25   2.0000      -0.718204       -19.5433
  26   2.0000      -0.708245       -19.2723
  27   2.0000      -0.703298       -19.1377
  28   2.0000      -0.701682       -19.0937
  29   2.0000      -0.690654       -18.7936
  30   2.0000      -0.645193       -17.5566
  31   2.0000      -0.629689       -17.1347
  32   2.0000      -0.613945       -16.7063
  33   2.0000      -0.601600       -16.3704
  34   2.0000      -0.597231       -16.2515
  35   2.0000      -0.590143       -16.0586
  36   2.0000      -0.584024       -15.8921
  37   2.0000      -0.573955       -15.6181
  38   2.0000      -0.558917       -15.2089
  39   2.0000      -0.545028       -14.8310
  40   2.0000      -0.526981       -14.3399
  41   2.0000      -0.524566       -14.2742
  42   2.0000      -0.524358       -14.2685
  43   2.0000      -0.511982       -13.9317
  44   2.0000      -0.508595       -13.8396
  45   2.0000      -0.504370       -13.7246
  46   2.0000      -0.500281       -13.6133
  47   2.0000      -0.492054       -13.3895
  48   2.0000      -0.486495       -13.2382
  49   2.0000      -0.477825       -13.0023
  50   0.0000       0.091130         2.4798
  51   0.0000       0.128251         3.4899
  52   0.0000       0.141472         3.8496
  53   0.0000       0.151956         4.1349
  54   0.0000       0.157285         4.2800

MULLIKEN ATOMIC CHARGES
-----------------------
   0 O :   -0.750010
   1 H :    0.344062
   2 H :    0.380275
   3 O :   -0.757960
   4 H :    0.349561
   5 H :    0.384933
   6 O :   -0.759328
   7 H :    0.355969
   8 H :    0.383058
   9 O :   -0.726964
  10 H :    0.390417
  11 H :    0.361420
  12 O :   -0.725739
  13 H :    0.350084
  14 H :    0.391527
  15 O :   -0.749791
  16 H :    0.368966
  17 H :    0.347747
  18 O :   -0.705352
  19 H :    0.346931
  20 H :    0.384857
  21 O :   -0.725407
  22 H :    0.385296
  23 H :    0.369998
  24 O :   -0.748328
  25 H :    0.338847
  26 H :    0.386087
  27 O :   -0.711542
  28 H :    0.360559
  29 H :    0.379828
Sum of atomic charges:    0.0000000

LOEWDIN ATOMIC CHARGES
----------------------
   0 O :   -0.345196
   1 H :    0.157015
   2 H :    0.145012
   3 O :   -0.315969
   4 H :    0.158633
   5 H :    0.146361
   6 O :   -0.315308
   7 H :    0.161792
   8 H :    0.145752
   9 O :   -0.290192
  10 H :    0.158358
  11 H :    0.146187
  12 O :   -0.283627
  13 H :    0.173299
  14 H :    0.157267
  15 O :   -0.349190
  16 H :    0.147992
  17 H :    0.138041
  18 O :   -0.280069
  19 H :    0.166425
  20 H :    0.157252
  21 O :   -0.287365
  22 H :    0.155069
  23 H :    0.150188
  24 O :   -0.343152
  25 H :    0.154539
  26 H :    0.146208
  27 O :   -0.283336
  28 H :    0.173728
  29 H :    0.154284

  Mayer bond orders larger than 0.100000
B(  0-O ,  1-H ) :   0.8469 B(  0-O ,  2-H ) :   0.7465 B(  2-H , 27-O ) :   0.1117
B(  3-O ,  4-H ) :   0.8409 B(  3-O ,  5-H ) :   0.7258 B(  5-H , 21-O ) :   0.1240
B(  6-O ,  7-H ) :   0.8378 B(  6-O ,  8-H ) :   0.7320 B(  8-H , 18-O ) :   0.1155
B(  9-O , 10-H ) :   0.7917 B(  9-O , 11-H ) :   0.8096 B(  9-O , 26-H ) :   0.1185
B( 12-O , 13-H ) :   0.8311 B( 12-O , 14-H ) :   0.7846 B( 15-O , 16-H ) :   0.8116
B( 15-O , 17-H ) :   0.7911 B( 18-O , 19-H ) :   0.8439 B( 18-O , 20-H ) :   0.7690
B( 21-O , 22-H ) :   0.8066 B( 21-O , 23-H ) :   0.7906 B( 24-O , 25-H ) :   0.8493
B( 24-O , 26-H ) :   0.7368 B( 27-O , 28-H ) :   0.8344 B( 27-O , 29-H ) :   0.7873

MP2 TOTAL ENERGY:     -763.265430262 Eh
FINAL SINGLE POINT ENERGY      -763.265430262061

DIPOLE MOMENT
-------------
                                X             Y             Z
Electronic contribution:     -0.02323      -0.07114      -0.00715
Nuclear contribution   :      0.90834       0.00045       0.00000
                        -----------------------------------------
Total Dipole Moment    :      0.88511      -0.07069      -0.00715
                        -----------------------------------------
Magnitude (a.u.)       :      0.88796
Magnitude (Debye)      :      2.25701

Rotational constants in cm-1:     0.024594     0.011260     0.011159
Rotational constants in MHz :   737.301052   337.570146   334.547740

                             ****ORCA TERMINATED NORMALLY****
TOTAL RUN TIME: 0 days 0 hours 6 minutes 51 seconds 72 msec
