                         Program Version 4.2.0 -  RELEASE  -
|  1> # 12h2o.su.etal.mol4,5,7,11
|  2> ! MP2 def2-TZVP EnGrad TightSCF
|  3>
|  4> %pal
|  5>     nprocs 6
|  6> end
|  7>
|  8> %maxcore 8000
|  9>
| 10> %scf
| 11>     ConvForced true
| 12> end
| 13>
| 14> *xyz 0 1
| 15> O  -0.885520000   1.737840000   0.052730000
| 16> H  -1.032320000   2.090180000  -0.841890000
| 17> H  -1.284090000   0.839590000   0.017130000
| 18> O   0.885520000  -1.737840000   0.052730000
| 19> H   1.284090000  -0.839590000   0.017130000
| 20> H   1.032320000  -2.090180000  -0.841890000
| 21> O  -1.737840000  -0.885520000  -0.052730000
| 22> H  -2.090180000  -1.032320000   0.841890000
| 23> H  -0.839590000  -1.284090000  -0.017130000
| 24> O  -0.741530000   1.752130000   2.896280000
| 25> H  -0.920500000   2.036450000   1.984040000
| 26> H  -1.242140000   0.921210000   2.984230000
| 27> *
| 28>
| 29>                          ****END OF INPUT****

CARTESIAN COORDINATES (ANGSTROEM)
---------------------------------
  O     -0.885520    1.737840    0.052730
  H     -1.032320    2.090180   -0.841890
  H     -1.284090    0.839590    0.017130
  O      0.885520   -1.737840    0.052730
  H      1.284090   -0.839590    0.017130
  H      1.032320   -2.090180   -0.841890
  O     -1.737840   -0.885520   -0.052730
  H     -2.090180   -1.032320    0.841890
  H     -0.839590   -1.284090   -0.017130
  O     -0.741530    1.752130    2.896280
  H     -0.920500    2.036450    1.984040
  H     -1.242140    0.921210    2.984230

 Total Charge           Charge          ....    0
 Multiplicity           Mult            ....    1
 Number of Electrons    NEL             ....   40
 Basis Dimension        Dim             ....  172

ORBITAL ENERGIES
----------------

  NO   OCC          E(Eh)            E(eV)
   0   2.0000     -20.607973      -560.7715
   1   2.0000     -20.574890      -559.8712
   2   2.0000     -20.553086      -559.2779
   3   2.0000     -20.528501      -558.6089
   4   2.0000      -1.389681       -37.8151
   5   2.0000      -1.360732       -37.0274
   6   2.0000      -1.335526       -36.3415
   7   2.0000      -1.309709       -35.6390
   8   2.0000      -0.745771       -20.2935
   9   2.0000      -0.728875       -19.8337
  10   2.0000      -0.709553       -19.3079
  11   2.0000      -0.678677       -18.4677
  12   2.0000      -0.633244       -17.2315
  13   2.0000      -0.607132       -16.5209
  14   2.0000      -0.584328       -15.9004
  15   2.0000      -0.546024       -14.8581
  16   2.0000      -0.541606       -14.7379
  17   2.0000      -0.516309       -14.0495
  18   2.0000      -0.501465       -13.6456
  19   2.0000      -0.474752       -12.9186
  20   0.0000       0.093477         2.5436
  21   0.0000       0.128330         3.4920
  22   0.0000       0.154667         4.2087
  23   0.0000       0.185207         5.0397
  24   0.0000       0.208907         5.6846

MULLIKEN ATOMIC CHARGES
-----------------------
   0 O :   -0.729426
   1 H :    0.338553
   2 H :    0.351084
   3 O :   -0.687717
   4 H :    0.369899
   5 H :    0.359062
   6 O :   -0.707531
   7 H :    0.345516
   8 H :    0.370516
   9 O :   -0.692253
  10 H :    0.374230
  11 H :    0.308066
Sum of atomic charges:    0.0000000

LOEWDIN ATOMIC CHARGES
----------------------
   0 O :   -0.344245
   1 H :    0.163222
   2 H :    0.140801
   3 O :   -0.287735
   4 H :    0.184696
   5 H :    0.174280
   6 O :   -0.307945
   7 H :    0.164776
   8 H :    0.146031
   9 O :   -0.340071
  10 H :    0.153983
  11 H :    0.152206

  Mayer bond orders larger than 0.100000
B(  0-O ,  1-H ) :   0.8493 B(  0-O ,  2-H ) :   0.7740 B(  2-H ,  6-O ) :   0.1001
B(  3-O ,  4-H ) :   0.8243 B(  3-O ,  5-H ) :   0.8365 B(  6-O ,  7-H ) :   0.8445
B(  6-O ,  8-H ) :   0.7769 B(  9-O , 10-H ) :   0.8145 B(  9-O , 11-H ) :   0.8687

MP2 TOTAL ENERGY:     -305.279172031 Eh
FINAL SINGLE POINT ENERGY      -305.279172030921

DIPOLE MOMENT
-------------
                                X             Y             Z
Electronic contribution:      0.24259      -0.18014       0.02956
Nuclear contribution   :     -0.11126      -0.90891      -1.46039
                        -----------------------------------------
Total Dipole Moment    :      0.13132      -1.08905      -1.43083
                        -----------------------------------------
Magnitude (a.u.)       :      1.80293
Magnitude (Debye)      :      4.58268

Rotational constants in cm-1:     0.143329     0.060648     0.054112
Rotational constants in MHz :  4296.882394  1818.171254  1622.249322

                             ****ORCA TERMINATED NORMALLY****
TOTAL RUN TIME: 0 days 0 hours 0 minutes 20 seconds 71 msec
