                         Program Version 4.2.0 -  RELEASE  -
|  1> # Functional Basis-set
|  2> ! MP2 Def2-TZVP
|  3>
|  4> # Type of calculation
|  5> ! OPT
|  6>
|  7> # Options
|  8> ! TightSCF
|  9>
| 10> %geom
| 11> 	MaxIter 200
| 12> end
| 13>
| 14> %maxcore 400
| 15>
| 16> %pal nprocs 24 end
| 17>
| 18> *xyz  0  1
| 19>     O      1.50486455     -0.93981893      0.90192774
| 20>     H      0.57997028     -1.22765303      0.91398580
| 21>     C      2.27517950     -1.99000425      0.33955825
| 22>     H      3.31405307     -1.64913680      0.33353413
| 23>     H      1.98578691     -2.22136534     -0.69750554
| 24>     H      2.22387140     -2.91822196      0.92994515
| 25>     O      1.22080271      1.49514609     -0.48526339
| 26>     H      1.48352900      0.69125674     -0.01286517
| 27>     C      1.53534439      2.60324091      0.34282064
| 28>     H      1.23297939      3.50022653     -0.20442464
| 29>     H      2.61262383      2.68131967      0.55764626
| 30>     H      0.99047049      2.58723503      1.29970809
| 31>     O     -1.25561478     -1.41835918      0.61073114
| 32>     H     -1.48292267     -0.69256555      0.01074948
| 33>     C     -2.11285070     -1.32978995      1.73760107
| 34>     H     -1.84328175     -2.15446271      2.40298263
| 35>     H     -3.17619700     -1.43859037      1.47258322
| 36>     H     -1.98802070     -0.38756722      2.29384844
| 37>     O     -1.47001634      0.86299680     -1.02740439
| 38>     H     -0.58053571      1.22892329     -0.91188257
| 39>     C     -1.69768310      0.71656269     -2.41997707
| 40>     H     -2.70376540      0.30338554     -2.53208533
| 41>     H     -0.98826594      0.02170953     -2.89609019
| 42>     H     -1.66032144      1.67553245     -2.96012375
| 43> *
| 44>
| 45>                          ****END OF INPUT****
 Total Charge           Charge          ....    0
 Multiplicity           Mult            ....    1
 Number of Electrons    NEL             ....   72
MP2 TOTAL ENERGY:     -462.080099829 Eh
FINAL SINGLE POINT ENERGY      -462.080099828732
MP2 TOTAL ENERGY:     -462.082016571 Eh
FINAL SINGLE POINT ENERGY      -462.082016571237
MP2 TOTAL ENERGY:     -462.082958492 Eh
FINAL SINGLE POINT ENERGY      -462.082958491894
MP2 TOTAL ENERGY:     -462.083307713 Eh
FINAL SINGLE POINT ENERGY      -462.083307713457
MP2 TOTAL ENERGY:     -462.083370888 Eh
FINAL SINGLE POINT ENERGY      -462.083370887742
MP2 TOTAL ENERGY:     -462.083432487 Eh
FINAL SINGLE POINT ENERGY      -462.083432487061
MP2 TOTAL ENERGY:     -462.083464065 Eh
FINAL SINGLE POINT ENERGY      -462.083464065218
MP2 TOTAL ENERGY:     -462.083484617 Eh
FINAL SINGLE POINT ENERGY      -462.083484617321
MP2 TOTAL ENERGY:     -462.083489540 Eh
FINAL SINGLE POINT ENERGY      -462.083489539571
                    ***********************HURRAY********************

CARTESIAN COORDINATES (ANGSTROEM)
---------------------------------
  O      1.455059   -0.880818    0.851331
  H      0.505216   -1.152524    0.844885
  C      2.220368   -1.942177    0.297700
  H      3.259249   -1.618771    0.264909
  H      1.896930   -2.188337   -0.717112
  H      2.154463   -2.840562    0.915723
  O      1.146008    1.442436   -0.473102
  H      1.385618    0.614295    0.009430
  C      1.474897    2.547001    0.357836
  H      1.166265    3.453621   -0.159587
  H      2.551009    2.598267    0.538796
  H      0.957941    2.498319    1.319832
  O     -1.181073   -1.365091    0.599473
  H     -1.385922   -0.613610   -0.008292
  C     -2.051394   -1.275769    1.718961
  H     -1.789879   -2.078488    2.406125
  H     -3.094470   -1.399885    1.418993
  H     -1.945822   -0.319965    2.238905
  O     -1.419962    0.803447   -0.977713
  H     -0.504881    1.151807   -0.846037
  C     -1.643879    0.670953   -2.374493
  H     -2.635645    0.243649   -2.511438
  H     -0.909075    0.009993   -2.841658
  H     -1.611022    1.642209   -2.873466

 Multiplicity           Mult            ....    1
 Number of Electrons    NEL             ....   72
 Basis Dimension        Dim             ....  344

ORBITAL ENERGIES
----------------

  NO   OCC          E(Eh)            E(eV)
   0   2.0000     -20.547181      -559.1172
   1   2.0000     -20.547171      -559.1169
   2   2.0000     -20.547171      -559.1169
   3   2.0000     -20.547160      -559.1166
   4   2.0000     -11.266178      -306.5683
   5   2.0000     -11.266177      -306.5683
   6   2.0000     -11.266177      -306.5683
   7   2.0000     -11.266177      -306.5683
   8   2.0000      -1.367170       -37.2026
   9   2.0000      -1.350238       -36.7419
  10   2.0000      -1.350238       -36.7419
  11   2.0000      -1.333793       -36.2943
  12   2.0000      -0.927969       -25.2513
  13   2.0000      -0.920919       -25.0595
  14   2.0000      -0.920919       -25.0595
  15   2.0000      -0.913714       -24.8634
  16   2.0000      -0.713055       -19.4032
  17   2.0000      -0.692088       -18.8327
  18   2.0000      -0.692087       -18.8327
  19   2.0000      -0.684181       -18.6175
  20   2.0000      -0.617637       -16.8068
  21   2.0000      -0.615770       -16.7559
  22   2.0000      -0.615770       -16.7559
  23   2.0000      -0.614834       -16.7305
  24   2.0000      -0.592739       -16.1293
  25   2.0000      -0.590336       -16.0639
  26   2.0000      -0.590336       -16.0638
  27   2.0000      -0.584936       -15.9169
  28   2.0000      -0.523375       -14.2418
  29   2.0000      -0.503368       -13.6973
  30   2.0000      -0.503368       -13.6973
  31   2.0000      -0.483030       -13.1439
  32   2.0000      -0.446311       -12.1447
  33   2.0000      -0.444669       -12.1001
  34   2.0000      -0.444669       -12.1001
  35   2.0000      -0.442310       -12.0359
  36   0.0000       0.132740         3.6120
  37   0.0000       0.150302         4.0899
  38   0.0000       0.165166         4.4944
  39   0.0000       0.165167         4.4944
  40   0.0000       0.196091         5.3359

MULLIKEN ATOMIC CHARGES
-----------------------
   0 O :   -0.562005
   1 H :    0.363227
   2 C :   -0.163991
   3 H :    0.125734
   4 H :    0.117440
   5 H :    0.119595
   6 O :   -0.562004
   7 H :    0.363227
   8 C :   -0.163991
   9 H :    0.125734
  10 H :    0.119595
  11 H :    0.117440
  12 O :   -0.562005
  13 H :    0.363227
  14 C :   -0.163991
  15 H :    0.125734
  16 H :    0.119595
  17 H :    0.117440
  18 O :   -0.562006
  19 H :    0.363227
  20 C :   -0.163990
  21 H :    0.125734
  22 H :    0.117440
  23 H :    0.119594
Sum of atomic charges:   -0.0000000

LOEWDIN ATOMIC CHARGES
----------------------
   0 O :   -0.087261
   1 H :    0.160779
   2 C :   -0.381574
   3 H :    0.107429
   4 H :    0.098781
   5 H :    0.101848
   6 O :   -0.087261
   7 H :    0.160779
   8 C :   -0.381574
   9 H :    0.107429
  10 H :    0.101848
  11 H :    0.098781
  12 O :   -0.087261
  13 H :    0.160778
  14 C :   -0.381574
  15 H :    0.107429
  16 H :    0.101848
  17 H :    0.098781
  18 O :   -0.087262
  19 H :    0.160779
  20 C :   -0.381574
  21 H :    0.107429
  22 H :    0.098781
  23 H :    0.101847

  Mayer bond orders larger than 0.100000
B(  0-O ,  1-H ) :   0.7467 B(  0-O ,  2-C ) :   0.8876 B(  0-O ,  7-H ) :   0.1212
B(  1-H , 12-O ) :   0.1212 B(  2-C ,  3-H ) :   0.9424 B(  2-C ,  4-H ) :   0.9401
B(  2-C ,  5-H ) :   0.9404 B(  6-O ,  7-H ) :   0.7467 B(  6-O ,  8-C ) :   0.8876
B(  6-O , 19-H ) :   0.1212 B(  8-C ,  9-H ) :   0.9424 B(  8-C , 10-H ) :   0.9404
B(  8-C , 11-H ) :   0.9401 B( 12-O , 13-H ) :   0.7467 B( 12-O , 14-C ) :   0.8876
B( 13-H , 18-O ) :   0.1212 B( 14-C , 15-H ) :   0.9424 B( 14-C , 16-H ) :   0.9404
B( 14-C , 17-H ) :   0.9401 B( 18-O , 19-H ) :   0.7467 B( 18-O , 20-C ) :   0.8876
B( 20-C , 21-H ) :   0.9424 B( 20-C , 22-H ) :   0.9401 B( 20-C , 23-H ) :   0.9404

MP2 TOTAL ENERGY:     -462.083491044 Eh
FINAL SINGLE POINT ENERGY      -462.083491044141

DIPOLE MOMENT
-------------
                                X             Y             Z
Electronic contribution:      0.00005      -0.00005      -0.00002
Nuclear contribution   :     -0.00007       0.00006       0.00002
                        -----------------------------------------
Total Dipole Moment    :     -0.00002       0.00001       0.00000
                        -----------------------------------------
Magnitude (a.u.)       :      0.00002
Magnitude (Debye)      :      0.00005

Rotational constants in cm-1:     0.036871     0.036870     0.024075
Rotational constants in MHz :  1105.351057  1105.340725   721.744549

                             ****ORCA TERMINATED NORMALLY****
TOTAL RUN TIME: 0 days 0 hours 30 minutes 4 seconds 939 msec
