                         Program Version 4.2.0 -  RELEASE  -
|  1> # 12mecn.remya.etal.2.mol0,2,11
|  2> ! MP2 def2-TZVP EnGrad TightSCF
|  3>
|  4> %pal
|  5>     nprocs 6
|  6> end
|  7>
|  8> %maxcore 8000
|  9>
| 10> %scf
| 11>     ConvForced true
| 12> end
| 13>
| 14> *xyz 0 1
| 15> C  -0.869520000  -3.929380000   1.700199000
| 16> H  -0.057420000  -3.268850000   2.015352000
| 17> H  -0.697530000  -4.930670000   2.101524000
| 18> H  -1.821490000  -3.546590000   2.077146000
| 19> C  -0.916080000  -3.969960000   0.256749000
| 20> N  -0.955390000  -3.995980000  -0.909290000
| 21> C  -4.219070000  -3.477410000  -1.501740000
| 22> H  -3.251530000  -3.803540000  -1.893830000
| 23> H  -4.452920000  -2.481700000  -1.890840000
| 24> H  -4.992170000  -4.178130000  -1.824640000
| 25> C  -4.154550000  -3.418790000  -0.058340000
| 26> N  -4.091140000  -3.354840000   1.104432000
| 27> C   4.214163000   3.378139000   1.593627000
| 28> H   3.242643000   3.657109000   2.012358000
| 29> H   4.969258000   4.086643000   1.941290000
| 30> H   4.482966000   2.372549000   1.931698000
| 31> C   4.130759000   3.388436000   0.150192000
| 32> N   4.050180000   3.381449000  -1.013420000
| 33> *
| 34>
| 35>                          ****END OF INPUT****

CARTESIAN COORDINATES (ANGSTROEM)
---------------------------------
  C     -0.869520   -3.929380    1.700199
  H     -0.057420   -3.268850    2.015352
  H     -0.697530   -4.930670    2.101524
  H     -1.821490   -3.546590    2.077146
  C     -0.916080   -3.969960    0.256749
  N     -0.955390   -3.995980   -0.909290
  C     -4.219070   -3.477410   -1.501740
  H     -3.251530   -3.803540   -1.893830
  H     -4.452920   -2.481700   -1.890840
  H     -4.992170   -4.178130   -1.824640
  C     -4.154550   -3.418790   -0.058340
  N     -4.091140   -3.354840    1.104432
  C      4.214163    3.378139    1.593627
  H      3.242643    3.657109    2.012358
  H      4.969258    4.086643    1.941290
  H      4.482966    2.372549    1.931698
  C      4.130759    3.388436    0.150192
  N      4.050180    3.381449   -1.013420

 Total Charge           Charge          ....    0
 Multiplicity           Mult            ....    1
 Number of Electrons    NEL             ....   66
 Basis Dimension        Dim             ....  333

ORBITAL ENERGIES
----------------

  NO   OCC          E(Eh)            E(eV)
   0   2.0000     -15.573379      -423.7732
   1   2.0000     -15.571316      -423.7170
   2   2.0000     -15.570901      -423.7058
   3   2.0000     -11.285823      -307.1029
   4   2.0000     -11.283432      -307.0378
   5   2.0000     -11.282648      -307.0165
   6   2.0000     -11.280250      -306.9512
   7   2.0000     -11.271787      -306.7209
   8   2.0000     -11.271667      -306.7177
   9   2.0000      -1.218297       -33.1515
  10   2.0000      -1.214848       -33.0577
  11   2.0000      -1.213895       -33.0318
  12   2.0000      -1.044178       -28.4135
  13   2.0000      -1.036559       -28.2062
  14   2.0000      -1.033612       -28.1260
  15   2.0000      -0.701058       -19.0767
  16   2.0000      -0.695248       -18.9186
  17   2.0000      -0.690877       -18.7997
  18   2.0000      -0.632506       -17.2114
  19   2.0000      -0.631563       -17.1857
  20   2.0000      -0.631079       -17.1725
  21   2.0000      -0.623169       -16.9573
  22   2.0000      -0.621071       -16.9002
  23   2.0000      -0.614415       -16.7191
  24   2.0000      -0.559268       -15.2185
  25   2.0000      -0.556041       -15.1307
  26   2.0000      -0.555860       -15.1257
  27   2.0000      -0.460173       -12.5219
  28   2.0000      -0.459559       -12.5052
  29   2.0000      -0.457981       -12.4623
  30   2.0000      -0.457873       -12.4594
  31   2.0000      -0.456729       -12.4282
  32   2.0000      -0.455552       -12.3962
  33   0.0000       0.118391         3.2216
  34   0.0000       0.128176         3.4878
  35   0.0000       0.142260         3.8711
  36   0.0000       0.169944         4.6244
  37   0.0000       0.170672         4.6442

MULLIKEN ATOMIC CHARGES
-----------------------
   0 C :   -0.284506
   1 H :    0.164564
   2 H :    0.166589
   3 H :    0.205438
   4 C :   -0.103107
   5 N :   -0.149570
   6 C :   -0.286621
   7 H :    0.206201
   8 H :    0.167214
   9 H :    0.166657
  10 C :   -0.100451
  11 N :   -0.152408
  12 C :   -0.280787
  13 H :    0.172243
  14 H :    0.172349
  15 H :    0.171608
  16 C :   -0.145437
  17 N :   -0.089977
Sum of atomic charges:    0.0000000

LOEWDIN ATOMIC CHARGES
----------------------
   0 C :   -0.282675
   1 H :    0.150709
   2 H :    0.151722
   3 H :    0.156961
   4 C :   -0.208210
   5 N :    0.030427
   6 C :   -0.281948
   7 H :    0.157291
   8 H :    0.153400
   9 H :    0.149897
  10 C :   -0.206716
  11 N :    0.029144
  12 C :   -0.284356
  13 H :    0.152849
  14 H :    0.151075
  15 H :    0.152780
  16 C :   -0.219528
  17 N :    0.047179

  Mayer bond orders larger than 0.100000
B(  0-C ,  1-H ) :   0.9167 B(  0-C ,  2-H ) :   0.9148 B(  0-C ,  3-H ) :   0.9012
B(  0-C ,  4-C ) :   0.9018 B(  4-C ,  5-N ) :   2.7714 B(  6-C ,  7-H ) :   0.9012
B(  6-C ,  8-H ) :   0.9143 B(  6-C ,  9-H ) :   0.9163 B(  6-C , 10-C ) :   0.9023
B( 10-C , 11-N ) :   2.7700 B( 12-C , 13-H ) :   0.9165 B( 12-C , 14-H ) :   0.9166
B( 12-C , 15-H ) :   0.9166 B( 12-C , 16-C ) :   0.9023 B( 16-C , 17-N ) :   2.8362

MP2 TOTAL ENERGY:     -397.459149524 Eh
FINAL SINGLE POINT ENERGY      -397.459149523501

DIPOLE MOMENT
-------------
                                X             Y             Z
Electronic contribution:     -0.14509       0.05492      -3.12955
Nuclear contribution   :      0.20981      -0.08637       4.63867
                        -----------------------------------------
Total Dipole Moment    :      0.06473      -0.03145       1.50911
                        -----------------------------------------
Magnitude (a.u.)       :      1.51083
Magnitude (Debye)      :      3.84022

Rotational constants in cm-1:     0.052827     0.006037     0.005889
Rotational constants in MHz :  1583.708738   180.977721   176.536306

                             ****ORCA TERMINATED NORMALLY****
TOTAL RUN TIME: 0 days 0 hours 2 minutes 28 seconds 175 msec
