                         Program Version 4.2.0 -  RELEASE  -
|  1> # 12meoh.boyd.etal.mol0,6,8
|  2> ! MP2 def2-TZVP EnGrad TightSCF
|  3>
|  4> %pal
|  5>     nprocs 6
|  6> end
|  7>
|  8> %maxcore 8000
|  9>
| 10> %scf
| 11>     ConvForced true
| 12> end
| 13>
| 14> *xyz 0 1
| 15> O  -1.776108874  -2.741384797  -1.019308298
| 16> H  -2.520094035  -2.452295987  -0.420778302
| 17> C  -2.174025166  -3.952700964  -1.647004581
| 18> H  -1.359803895  -4.272673416  -2.304149236
| 19> H  -3.075973971  -3.808692420  -2.256751112
| 20> H  -2.370225393  -4.752784761  -0.918966137
| 21> O   2.622209273  -1.703002590  -1.445859723
| 22> H   1.828551432  -1.986513781  -0.909754968
| 23> C   2.781117675  -2.615822239  -2.525472890
| 24> H   3.691063626  -2.339003544  -3.065143454
| 25> H   1.934727323  -2.559520367  -3.223226661
| 26> H   2.879948338  -3.653846211  -2.177750170
| 27> O   3.570084754   2.361662577  -0.202416728
| 28> H   3.393280933   1.755669977   0.560634073
| 29> C   4.368082883   1.644741793  -1.143112807
| 30> H   4.552851717   2.311801738  -1.989632421
| 31> H   3.862427494   0.740851663  -1.508095690
| 32> H   5.333949674   1.357289092  -0.706288100
| 33> *
| 34>
| 35>                          ****END OF INPUT****

CARTESIAN COORDINATES (ANGSTROEM)
---------------------------------
  O     -1.776109   -2.741385   -1.019308
  H     -2.520094   -2.452296   -0.420778
  C     -2.174025   -3.952701   -1.647005
  H     -1.359804   -4.272673   -2.304149
  H     -3.075974   -3.808692   -2.256751
  H     -2.370225   -4.752785   -0.918966
  O      2.622209   -1.703003   -1.445860
  H      1.828551   -1.986514   -0.909755
  C      2.781118   -2.615822   -2.525473
  H      3.691064   -2.339004   -3.065143
  H      1.934727   -2.559520   -3.223227
  H      2.879948   -3.653846   -2.177750
  O      3.570085    2.361663   -0.202417
  H      3.393281    1.755670    0.560634
  C      4.368083    1.644742   -1.143113
  H      4.552852    2.311802   -1.989632
  H      3.862427    0.740852   -1.508096
  H      5.333950    1.357289   -0.706288

 Total Charge           Charge          ....    0
 Multiplicity           Mult            ....    1
 Number of Electrons    NEL             ....   54
 Basis Dimension        Dim             ....  258

ORBITAL ENERGIES
----------------

  NO   OCC          E(Eh)            E(eV)
   0   2.0000     -20.567787      -559.6779
   1   2.0000     -20.556076      -559.3593
   2   2.0000     -20.540718      -558.9414
   3   2.0000     -11.279883      -306.9412
   4   2.0000     -11.270197      -306.6776
   5   2.0000     -11.251667      -306.1734
   6   2.0000      -1.356777       -36.9198
   7   2.0000      -1.344376       -36.5823
   8   2.0000      -1.330001       -36.1912
   9   2.0000      -0.927699       -25.2440
  10   2.0000      -0.917916       -24.9778
  11   2.0000      -0.901229       -24.5237
  12   2.0000      -0.691014       -18.8034
  13   2.0000      -0.679696       -18.4955
  14   2.0000      -0.664221       -18.0744
  15   2.0000      -0.626010       -17.0346
  16   2.0000      -0.615376       -16.7452
  17   2.0000      -0.600588       -16.3428
  18   2.0000      -0.599521       -16.3138
  19   2.0000      -0.588958       -16.0264
  20   2.0000      -0.572674       -15.5832
  21   2.0000      -0.509748       -13.8709
  22   2.0000      -0.499705       -13.5977
  23   2.0000      -0.483170       -13.1477
  24   2.0000      -0.458165       -12.4673
  25   2.0000      -0.447565       -12.1789
  26   2.0000      -0.431598       -11.7444
  27   0.0000       0.115210         3.1350
  28   0.0000       0.141711         3.8562
  29   0.0000       0.151980         4.1356
  30   0.0000       0.166211         4.5228
  31   0.0000       0.182593         4.9686

MULLIKEN ATOMIC CHARGES
-----------------------
   0 O :   -0.501266
   1 H :    0.325445
   2 C :   -0.175189
   3 H :    0.126769
   4 H :    0.114041
   5 H :    0.112025
   6 O :   -0.501543
   7 H :    0.329340
   8 C :   -0.169656
   9 H :    0.127298
  10 H :    0.113336
  11 H :    0.108285
  12 O :   -0.504938
  13 H :    0.319283
  14 C :   -0.180884
  15 H :    0.119075
  16 H :    0.137578
  17 H :    0.101002
Sum of atomic charges:    0.0000000

LOEWDIN ATOMIC CHARGES
----------------------
   0 O :   -0.111817
   1 H :    0.194502
   2 C :   -0.383869
   3 H :    0.109346
   4 H :    0.096970
   5 H :    0.096038
   6 O :   -0.110233
   7 H :    0.196407
   8 C :   -0.381952
   9 H :    0.109121
  10 H :    0.096779
  11 H :    0.095835
  12 O :   -0.113748
  13 H :    0.186847
  14 C :   -0.381610
  15 H :    0.106735
  16 H :    0.101258
  17 H :    0.093392

  Mayer bond orders larger than 0.100000
B(  0-O ,  1-H ) :   0.8395 B(  0-O ,  2-C ) :   0.9226 B(  2-C ,  3-H ) :   0.9377
B(  2-C ,  4-H ) :   0.9397 B(  2-C ,  5-H ) :   0.9380 B(  6-O ,  7-H ) :   0.8337
B(  6-O ,  8-C ) :   0.9221 B(  8-C ,  9-H ) :   0.9391 B(  8-C , 10-H ) :   0.9383
B(  8-C , 11-H ) :   0.9363 B( 12-O , 13-H ) :   0.8452 B( 12-O , 14-C ) :   0.9159
B( 14-C , 15-H ) :   0.9366 B( 14-C , 16-H ) :   0.9332 B( 14-C , 17-H ) :   0.9413

MP2 TOTAL ENERGY:     -346.523976332 Eh
FINAL SINGLE POINT ENERGY      -346.523976332374

DIPOLE MOMENT
-------------
                                X             Y             Z
Electronic contribution:     -0.54730       3.64188       3.09047
Nuclear contribution   :     -0.39111      -5.27344      -3.02215
                        -----------------------------------------
Total Dipole Moment    :     -0.93841      -1.63157       0.06832
                        -----------------------------------------
Magnitude (a.u.)       :      1.88343
Magnitude (Debye)      :      4.78729

Rotational constants in cm-1:     0.094192     0.015925     0.013854
Rotational constants in MHz :  2823.795499   477.422056   415.338286

                             ****ORCA TERMINATED NORMALLY****
TOTAL RUN TIME: 0 days 0 hours 0 minutes 51 seconds 545 msec
