                         Program Version 4.2.0 -  RELEASE  -
|  1> # 12meoh.boyd.etal.mol1,10
|  2> ! MP2 def2-TZVP EnGrad TightSCF
|  3>
|  4> %pal
|  5>     nprocs 6
|  6> end
|  7>
|  8> %maxcore 8000
|  9>
| 10> %scf
| 11>     ConvForced true
| 12> end
| 13>
| 14> *xyz 0 1
| 15> O   0.666045193  -2.600503172   0.138317521
| 16> H  -0.227115049  -2.712051982  -0.281868004
| 17> C   0.490021232  -1.851247678   1.341189459
| 18> H   1.466500502  -1.466176022   1.645844415
| 19> H   0.097564527  -2.488364683   2.146902740
| 20> H  -0.187588112  -1.000787499   1.200739571
| 21> O  -5.201143618   0.064582726  -0.172223772
| 22> H  -4.686891530   0.869258890   0.107806143
| 23> C  -6.513192168   0.171391798   0.359883449
| 24> H  -7.049381312  -0.749234190   0.111361174
| 25> H  -7.057741163   1.017801101  -0.081819420
| 26> H  -6.514770575   0.292264928   1.453058834
| 27> *
| 28>
| 29>                          ****END OF INPUT****

CARTESIAN COORDINATES (ANGSTROEM)
---------------------------------
  O      0.666045   -2.600503    0.138318
  H     -0.227115   -2.712052   -0.281868
  C      0.490021   -1.851248    1.341189
  H      1.466501   -1.466176    1.645844
  H      0.097565   -2.488365    2.146903
  H     -0.187588   -1.000787    1.200740
  O     -5.201144    0.064583   -0.172224
  H     -4.686892    0.869259    0.107806
  C     -6.513192    0.171392    0.359883
  H     -7.049381   -0.749234    0.111361
  H     -7.057741    1.017801   -0.081819
  H     -6.514771    0.292265    1.453059

 Total Charge           Charge          ....    0
 Multiplicity           Mult            ....    1
 Number of Electrons    NEL             ....   36
 Basis Dimension        Dim             ....  172

ORBITAL ENERGIES
----------------

  NO   OCC          E(Eh)            E(eV)
   0   2.0000     -20.562103      -559.5233
   1   2.0000     -20.554191      -559.3080
   2   2.0000     -11.275054      -306.8098
   3   2.0000     -11.269571      -306.6606
   4   2.0000      -1.352136       -36.7935
   5   2.0000      -1.342366       -36.5276
   6   2.0000      -0.923028       -25.1169
   7   2.0000      -0.917577       -24.9685
   8   2.0000      -0.686524       -18.6813
   9   2.0000      -0.678076       -18.4514
  10   2.0000      -0.620753       -16.8915
  11   2.0000      -0.614124       -16.7112
  12   2.0000      -0.595683       -16.2093
  13   2.0000      -0.587420       -15.9845
  14   2.0000      -0.503971       -13.7137
  15   2.0000      -0.498477       -13.5642
  16   2.0000      -0.452821       -12.3219
  17   2.0000      -0.446664       -12.1543
  18   0.0000       0.126161         3.4330
  19   0.0000       0.141507         3.8506
  20   0.0000       0.171372         4.6633
  21   0.0000       0.179242         4.8774
  22   0.0000       0.224988         6.1222

MULLIKEN ATOMIC CHARGES
-----------------------
   0 O :   -0.498495
   1 H :    0.324364
   2 C :   -0.173708
   3 H :    0.127769
   4 H :    0.110143
   5 H :    0.109899
   6 O :   -0.498599
   7 H :    0.321813
   8 C :   -0.172554
   9 H :    0.129868
  10 H :    0.110104
  11 H :    0.109395
Sum of atomic charges:    0.0000000

LOEWDIN ATOMIC CHARGES
----------------------
   0 O :   -0.112819
   1 H :    0.190777
   2 C :   -0.378159
   3 H :    0.108658
   4 H :    0.095969
   5 H :    0.095559
   6 O :   -0.108135
   7 H :    0.190870
   8 C :   -0.384512
   9 H :    0.110667
  10 H :    0.095642
  11 H :    0.095483

  Mayer bond orders larger than 0.100000
B(  0-O ,  1-H ) :   0.8417 B(  0-O ,  2-C ) :   0.9289 B(  2-C ,  3-H ) :   0.9380
B(  2-C ,  4-H ) :   0.9380 B(  2-C ,  5-H ) :   0.9414 B(  6-O ,  7-H ) :   0.8420
B(  6-O ,  8-C ) :   0.9253 B(  8-C ,  9-H ) :   0.9375 B(  8-C , 10-H ) :   0.9391
B(  8-C , 11-H ) :   0.9385

MP2 TOTAL ENERGY:     -231.013305850 Eh
FINAL SINGLE POINT ENERGY      -231.013305850117

DIPOLE MOMENT
-------------
                                X             Y             Z
Electronic contribution:      1.97651      -1.20799      -2.21717
Nuclear contribution   :     -2.83200       1.99292       2.82643
                        -----------------------------------------
Total Dipole Moment    :     -0.85549       0.78493       0.60926
                        -----------------------------------------
Magnitude (a.u.)       :      1.31117
Magnitude (Debye)      :      3.33272

Rotational constants in cm-1:     0.584822     0.021773     0.021369
Rotational constants in MHz : 17532.521970   652.724742   640.619402

                             ****ORCA TERMINATED NORMALLY****
TOTAL RUN TIME: 0 days 0 hours 0 minutes 17 seconds 528 msec
