                         Program Version 4.2.0 -  RELEASE  -
|  1> # 12h2o.su.etal.mol0,2,3,6,7,8,9,11
|  2> ! MP2 def2-TZVP EnGrad TightSCF
|  3>
|  4> %pal
|  5>     nprocs 6
|  6> end
|  7>
|  8> %maxcore 8000
|  9>
| 10> %scf
| 11>     ConvForced true
| 12> end
| 13>
| 14> *xyz 0 1
| 15> O   1.794470000   0.923410000   2.768350000
| 16> H   2.338250000   1.359750000   3.430940000
| 17> H   0.879480000   1.303000000   2.865760000
| 18> O   0.923410000  -1.794470000  -2.768350000
| 19> H   1.359750000  -2.338250000  -3.430940000
| 20> H   1.303000000  -0.879480000  -2.865760000
| 21> O  -1.752130000  -0.741530000  -2.896280000
| 22> H  -2.036450000  -0.920500000  -1.984040000
| 23> H  -0.921210000  -1.242140000  -2.984230000
| 24> O   1.737840000   0.885520000  -0.052730000
| 25> H   2.090180000   1.032320000   0.841890000
| 26> H   0.839590000   1.284090000  -0.017130000
| 27> O  -1.737840000  -0.885520000  -0.052730000
| 28> H  -2.090180000  -1.032320000   0.841890000
| 29> H  -0.839590000  -1.284090000  -0.017130000
| 30> O   1.752130000   0.741530000  -2.896280000
| 31> H   2.036450000   0.920500000  -1.984040000
| 32> H   0.921210000   1.242140000  -2.984230000
| 33> O   0.741530000  -1.752130000   2.896280000
| 34> H   0.920500000  -2.036450000   1.984040000
| 35> H   1.242140000  -0.921210000   2.984230000
| 36> O  -0.741530000   1.752130000   2.896280000
| 37> H  -0.920500000   2.036450000   1.984040000
| 38> H  -1.242140000   0.921210000   2.984230000
| 39> *
| 40>
| 41>                          ****END OF INPUT****

CARTESIAN COORDINATES (ANGSTROEM)
---------------------------------
  O      1.794470    0.923410    2.768350
  H      2.338250    1.359750    3.430940
  H      0.879480    1.303000    2.865760
  O      0.923410   -1.794470   -2.768350
  H      1.359750   -2.338250   -3.430940
  H      1.303000   -0.879480   -2.865760
  O     -1.752130   -0.741530   -2.896280
  H     -2.036450   -0.920500   -1.984040
  H     -0.921210   -1.242140   -2.984230
  O      1.737840    0.885520   -0.052730
  H      2.090180    1.032320    0.841890
  H      0.839590    1.284090   -0.017130
  O     -1.737840   -0.885520   -0.052730
  H     -2.090180   -1.032320    0.841890
  H     -0.839590   -1.284090   -0.017130
  O      1.752130    0.741530   -2.896280
  H      2.036450    0.920500   -1.984040
  H      0.921210    1.242140   -2.984230
  O      0.741530   -1.752130    2.896280
  H      0.920500   -2.036450    1.984040
  H      1.242140   -0.921210    2.984230
  O     -0.741530    1.752130    2.896280
  H     -0.920500    2.036450    1.984040
  H     -1.242140    0.921210    2.984230

 Total Charge           Charge          ....    0
 Multiplicity           Mult            ....    1
 Number of Electrons    NEL             ....   80
 Basis Dimension        Dim             ....  344

ORBITAL ENERGIES
----------------

  NO   OCC          E(Eh)            E(eV)
   0   2.0000     -20.629744      -561.3639
   1   2.0000     -20.591722      -560.3293
   2   2.0000     -20.590842      -560.3053
   3   2.0000     -20.581546      -560.0523
   4   2.0000     -20.567693      -559.6754
   5   2.0000     -20.554438      -559.3147
   6   2.0000     -20.533400      -558.7422
   7   2.0000     -20.500162      -557.8378
   8   2.0000      -1.416115       -38.5345
   9   2.0000      -1.378256       -37.5043
  10   2.0000      -1.369800       -37.2742
  11   2.0000      -1.364198       -37.1217
  12   2.0000      -1.353751       -36.8374
  13   2.0000      -1.336313       -36.3629
  14   2.0000      -1.316976       -35.8367
  15   2.0000      -1.285004       -34.9667
  16   2.0000      -0.771883       -21.0040
  17   2.0000      -0.759056       -20.6550
  18   2.0000      -0.734220       -19.9791
  19   2.0000      -0.731090       -19.8940
  20   2.0000      -0.713915       -19.4266
  21   2.0000      -0.706010       -19.2115
  22   2.0000      -0.700761       -19.0687
  23   2.0000      -0.664002       -18.0684
  24   2.0000      -0.659119       -17.9355
  25   2.0000      -0.625438       -17.0190
  26   2.0000      -0.614535       -16.7224
  27   2.0000      -0.608145       -16.5485
  28   2.0000      -0.591059       -16.0835
  29   2.0000      -0.577804       -15.7228
  30   2.0000      -0.562766       -15.3136
  31   2.0000      -0.558290       -15.1918
  32   2.0000      -0.539749       -14.6873
  33   2.0000      -0.535337       -14.5673
  34   2.0000      -0.527392       -14.3511
  35   2.0000      -0.520779       -14.1711
  36   2.0000      -0.503380       -13.6977
  37   2.0000      -0.501592       -13.6490
  38   2.0000      -0.480299       -13.0696
  39   2.0000      -0.450337       -12.2543
  40   0.0000       0.062975         1.7136
  41   0.0000       0.117627         3.2008
  42   0.0000       0.125945         3.4271
  43   0.0000       0.129298         3.5184
  44   0.0000       0.157719         4.2918

MULLIKEN ATOMIC CHARGES
-----------------------
   0 O :   -0.753151
   1 H :    0.357378
   2 H :    0.382370
   3 O :   -0.743758
   4 H :    0.336430
   5 H :    0.384330
   6 O :   -0.735355
   7 H :    0.360297
   8 H :    0.349167
   9 O :   -0.711783
  10 H :    0.381625
  11 H :    0.323032
  12 O :   -0.700435
  13 H :    0.340934
  14 H :    0.357447
  15 O :   -0.702033
  16 H :    0.387431
  17 H :    0.351119
  18 O :   -0.711059
  19 H :    0.332509
  20 H :    0.363615
  21 O :   -0.679034
  22 H :    0.359444
  23 H :    0.369480
Sum of atomic charges:    0.0000000

LOEWDIN ATOMIC CHARGES
----------------------
   0 O :   -0.312337
   1 H :    0.162776
   2 H :    0.145717
   3 O :   -0.343400
   4 H :    0.153456
   5 H :    0.146019
   6 O :   -0.359428
   7 H :    0.147084
   8 H :    0.141746
   9 O :   -0.323311
  10 H :    0.154632
  11 H :    0.161605
  12 O :   -0.317107
  13 H :    0.163886
  14 H :    0.176329
  15 O :   -0.277146
  16 H :    0.158740
  17 H :    0.170909
  18 O :   -0.345918
  19 H :    0.159161
  20 H :    0.147095
  21 O :   -0.263111
  22 H :    0.173269
  23 H :    0.179335

  Mayer bond orders larger than 0.100000
B(  0-O ,  1-H ) :   0.8365 B(  0-O ,  2-H ) :   0.7496 B(  3-O ,  4-H ) :   0.8511
B(  3-O ,  5-H ) :   0.7559 B(  6-O ,  7-H ) :   0.8333 B(  6-O ,  8-H ) :   0.8150
B(  9-O , 10-H ) :   0.7982 B(  9-O , 11-H ) :   0.8496 B( 12-O , 13-H ) :   0.8449
B( 12-O , 14-H ) :   0.8267 B( 15-O , 16-H ) :   0.7990 B( 15-O , 17-H ) :   0.8374
B( 18-O , 19-H ) :   0.8539 B( 18-O , 20-H ) :   0.8118 B( 21-O , 22-H ) :   0.8352
B( 21-O , 23-H ) :   0.8253

MP2 TOTAL ENERGY:     -610.570823965 Eh
FINAL SINGLE POINT ENERGY      -610.570823964820

DIPOLE MOMENT
-------------
                                X             Y             Z
Electronic contribution:      0.05347       0.32080       0.31601
Nuclear contribution   :      0.37017       0.98813       1.54856
                        -----------------------------------------
Total Dipole Moment    :      0.42364       1.30892       1.86456
                        -----------------------------------------
Magnitude (a.u.)       :      2.31718
Magnitude (Debye)      :      5.88982

Rotational constants in cm-1:     0.033919     0.015449     0.013771
Rotational constants in MHz :  1016.863359   463.159545   412.838776

                             ****ORCA TERMINATED NORMALLY****
TOTAL RUN TIME: 0 days 0 hours 2 minutes 48 seconds 43 msec
