                         Program Version 4.2.0 -  RELEASE  -
|  1> # 12h2o.su.etal.mol1,3,4,11
|  2> ! MP2 def2-TZVP EnGrad TightSCF
|  3>
|  4> %pal
|  5>     nprocs 6
|  6> end
|  7>
|  8> %maxcore 8000
|  9>
| 10> %scf
| 11>     ConvForced true
| 12> end
| 13>
| 14> *xyz 0 1
| 15> O  -1.794470000  -0.923410000   2.768350000
| 16> H  -2.338250000  -1.359750000   3.430940000
| 17> H  -0.879480000  -1.303000000   2.865760000
| 18> O  -1.752130000  -0.741530000  -2.896280000
| 19> H  -2.036450000  -0.920500000  -1.984040000
| 20> H  -0.921210000  -1.242140000  -2.984230000
| 21> O  -0.885520000   1.737840000   0.052730000
| 22> H  -1.032320000   2.090180000  -0.841890000
| 23> H  -1.284090000   0.839590000   0.017130000
| 24> O  -0.741530000   1.752130000   2.896280000
| 25> H  -0.920500000   2.036450000   1.984040000
| 26> H  -1.242140000   0.921210000   2.984230000
| 27> *
| 28>
| 29>                          ****END OF INPUT****

CARTESIAN COORDINATES (ANGSTROEM)
---------------------------------
  O     -1.794470   -0.923410    2.768350
  H     -2.338250   -1.359750    3.430940
  H     -0.879480   -1.303000    2.865760
  O     -1.752130   -0.741530   -2.896280
  H     -2.036450   -0.920500   -1.984040
  H     -0.921210   -1.242140   -2.984230
  O     -0.885520    1.737840    0.052730
  H     -1.032320    2.090180   -0.841890
  H     -1.284090    0.839590    0.017130
  O     -0.741530    1.752130    2.896280
  H     -0.920500    2.036450    1.984040
  H     -1.242140    0.921210    2.984230

 Total Charge           Charge          ....    0
 Multiplicity           Mult            ....    1
 Number of Electrons    NEL             ....   40
 Basis Dimension        Dim             ....  172

ORBITAL ENERGIES
----------------

  NO   OCC          E(Eh)            E(eV)
   0   2.0000     -20.595166      -560.4230
   1   2.0000     -20.579249      -559.9898
   2   2.0000     -20.578237      -559.9623
   3   2.0000     -20.502959      -557.9139
   4   2.0000      -1.372783       -37.3553
   5   2.0000      -1.358324       -36.9619
   6   2.0000      -1.356357       -36.9084
   7   2.0000      -1.288345       -35.0576
   8   2.0000      -0.739870       -20.1329
   9   2.0000      -0.721367       -19.6294
  10   2.0000      -0.718500       -19.5514
  11   2.0000      -0.667168       -18.1546
  12   2.0000      -0.613834       -16.7033
  13   2.0000      -0.595653       -16.2085
  14   2.0000      -0.593181       -16.1413
  15   2.0000      -0.545343       -14.8395
  16   2.0000      -0.525202       -14.2915
  17   2.0000      -0.522670       -14.2226
  18   2.0000      -0.511264       -13.9122
  19   2.0000      -0.452823       -12.3219
  20   0.0000       0.087035         2.3684
  21   0.0000       0.113821         3.0972
  22   0.0000       0.154874         4.2143
  23   0.0000       0.174877         4.7587
  24   0.0000       0.181985         4.9521

MULLIKEN ATOMIC CHARGES
-----------------------
   0 O :   -0.699753
   1 H :    0.355697
   2 H :    0.361466
   3 O :   -0.669904
   4 H :    0.330284
   5 H :    0.342802
   6 O :   -0.687655
   7 H :    0.351798
   8 H :    0.335793
   9 O :   -0.724238
  10 H :    0.365358
  11 H :    0.338353
Sum of atomic charges:   -0.0000000

LOEWDIN ATOMIC CHARGES
----------------------
   0 O :   -0.313773
   1 H :    0.164727
   2 H :    0.188347
   3 O :   -0.327735
   4 H :    0.160608
   5 H :    0.169502
   6 O :   -0.315246
   7 H :    0.170581
   8 H :    0.168874
   9 O :   -0.354993
  10 H :    0.149937
  11 H :    0.139171

  Mayer bond orders larger than 0.100000
B(  0-O ,  1-H ) :   0.8400 B(  0-O ,  2-H ) :   0.8299 B(  3-O ,  4-H ) :   0.8555
B(  3-O ,  5-H ) :   0.8493 B(  6-O ,  7-H ) :   0.8404 B(  6-O ,  8-H ) :   0.8444
B(  9-O , 10-H ) :   0.8276 B(  9-O , 11-H ) :   0.8352

MP2 TOTAL ENERGY:     -305.265076515 Eh
FINAL SINGLE POINT ENERGY      -305.265076515188

DIPOLE MOMENT
-------------
                                X             Y             Z
Electronic contribution:     -0.00480       0.19210      -0.14150
Nuclear contribution   :     -0.25565      -2.15417      -0.14168
                        -----------------------------------------
Total Dipole Moment    :     -0.26045      -1.96207      -0.28319
                        -----------------------------------------
Magnitude (a.u.)       :      1.99943
Magnitude (Debye)      :      5.08216

Rotational constants in cm-1:     0.133096     0.040306     0.031200
Rotational constants in MHz :  3990.123931  1208.342203   935.338637

                             ****ORCA TERMINATED NORMALLY****
TOTAL RUN TIME: 0 days 0 hours 0 minutes 16 seconds 479 msec
