                         Program Version 4.2.0 -  RELEASE  -
|  1> # 12h2o.su.etal.mol0,1,3,4,5,6,7,9,11
|  2> ! MP2 def2-TZVP EnGrad TightSCF
|  3>
|  4> %pal
|  5>     nprocs 6
|  6> end
|  7>
|  8> %maxcore 8000
|  9>
| 10> %scf
| 11>     ConvForced true
| 12> end
| 13>
| 14> *xyz 0 1
| 15> O   1.794470000   0.923410000   2.768350000
| 16> H   2.338250000   1.359750000   3.430940000
| 17> H   0.879480000   1.303000000   2.865760000
| 18> O  -1.794470000  -0.923410000   2.768350000
| 19> H  -2.338250000  -1.359750000   3.430940000
| 20> H  -0.879480000  -1.303000000   2.865760000
| 21> O  -1.752130000  -0.741530000  -2.896280000
| 22> H  -2.036450000  -0.920500000  -1.984040000
| 23> H  -0.921210000  -1.242140000  -2.984230000
| 24> O  -0.885520000   1.737840000   0.052730000
| 25> H  -1.032320000   2.090180000  -0.841890000
| 26> H  -1.284090000   0.839590000   0.017130000
| 27> O   0.885520000  -1.737840000   0.052730000
| 28> H   1.284090000  -0.839590000   0.017130000
| 29> H   1.032320000  -2.090180000  -0.841890000
| 30> O   1.737840000   0.885520000  -0.052730000
| 31> H   2.090180000   1.032320000   0.841890000
| 32> H   0.839590000   1.284090000  -0.017130000
| 33> O  -1.737840000  -0.885520000  -0.052730000
| 34> H  -2.090180000  -1.032320000   0.841890000
| 35> H  -0.839590000  -1.284090000  -0.017130000
| 36> O   0.741530000  -1.752130000   2.896280000
| 37> H   0.920500000  -2.036450000   1.984040000
| 38> H   1.242140000  -0.921210000   2.984230000
| 39> O  -0.741530000   1.752130000   2.896280000
| 40> H  -0.920500000   2.036450000   1.984040000
| 41> H  -1.242140000   0.921210000   2.984230000
| 42> *
| 43>
| 44>                          ****END OF INPUT****

CARTESIAN COORDINATES (ANGSTROEM)
---------------------------------
  O      1.794470    0.923410    2.768350
  H      2.338250    1.359750    3.430940
  H      0.879480    1.303000    2.865760
  O     -1.794470   -0.923410    2.768350
  H     -2.338250   -1.359750    3.430940
  H     -0.879480   -1.303000    2.865760
  O     -1.752130   -0.741530   -2.896280
  H     -2.036450   -0.920500   -1.984040
  H     -0.921210   -1.242140   -2.984230
  O     -0.885520    1.737840    0.052730
  H     -1.032320    2.090180   -0.841890
  H     -1.284090    0.839590    0.017130
  O      0.885520   -1.737840    0.052730
  H      1.284090   -0.839590    0.017130
  H      1.032320   -2.090180   -0.841890
  O      1.737840    0.885520   -0.052730
  H      2.090180    1.032320    0.841890
  H      0.839590    1.284090   -0.017130
  O     -1.737840   -0.885520   -0.052730
  H     -2.090180   -1.032320    0.841890
  H     -0.839590   -1.284090   -0.017130
  O      0.741530   -1.752130    2.896280
  H      0.920500   -2.036450    1.984040
  H      1.242140   -0.921210    2.984230
  O     -0.741530    1.752130    2.896280
  H     -0.920500    2.036450    1.984040
  H     -1.242140    0.921210    2.984230

 Total Charge           Charge          ....    0
 Multiplicity           Mult            ....    1
 Number of Electrons    NEL             ....   90
 Basis Dimension        Dim             ....  387

ORBITAL ENERGIES
----------------

  NO   OCC          E(Eh)            E(eV)
   0   2.0000     -20.591073      -560.3116
   1   2.0000     -20.581811      -560.0596
   2   2.0000     -20.575501      -559.8878
   3   2.0000     -20.571348      -559.7748
   4   2.0000     -20.568616      -559.7005
   5   2.0000     -20.563080      -559.5499
   6   2.0000     -20.560589      -559.4821
   7   2.0000     -20.548877      -559.1634
   8   2.0000     -20.543946      -559.0292
   9   2.0000      -1.386624       -37.7320
  10   2.0000      -1.374859       -37.4118
  11   2.0000      -1.370572       -37.2952
  12   2.0000      -1.364659       -37.1343
  13   2.0000      -1.354123       -36.8476
  14   2.0000      -1.349140       -36.7120
  15   2.0000      -1.341625       -36.5075
  16   2.0000      -1.331475       -36.2313
  17   2.0000      -1.325315       -36.0637
  18   2.0000      -0.745542       -20.2872
  19   2.0000      -0.741413       -20.1749
  20   2.0000      -0.737174       -20.0595
  21   2.0000      -0.736782       -20.0489
  22   2.0000      -0.732339       -19.9280
  23   2.0000      -0.721228       -19.6256
  24   2.0000      -0.715064       -19.4579
  25   2.0000      -0.710246       -19.3268
  26   2.0000      -0.694878       -18.9086
  27   2.0000      -0.653989       -17.7959
  28   2.0000      -0.627543       -17.0763
  29   2.0000      -0.620656       -16.8889
  30   2.0000      -0.616684       -16.7808
  31   2.0000      -0.601240       -16.3606
  32   2.0000      -0.588480       -16.0133
  33   2.0000      -0.584599       -15.9077
  34   2.0000      -0.565023       -15.3751
  35   2.0000      -0.553848       -15.0710
  36   2.0000      -0.534563       -14.5462
  37   2.0000      -0.524863       -14.2822
  38   2.0000      -0.523615       -14.2483
  39   2.0000      -0.518069       -14.0974
  40   2.0000      -0.516514       -14.0551
  41   2.0000      -0.509551       -13.8656
  42   2.0000      -0.507079       -13.7983
  43   2.0000      -0.498473       -13.5641
  44   2.0000      -0.490218       -13.3395
  45   0.0000       0.096659         2.6302
  46   0.0000       0.125582         3.4173
  47   0.0000       0.140998         3.8367
  48   0.0000       0.148115         4.0304
  49   0.0000       0.190115         5.1733

MULLIKEN ATOMIC CHARGES
-----------------------
   0 O :   -0.762872
   1 H :    0.353246
   2 H :    0.384537
   3 O :   -0.763812
   4 H :    0.354698
   5 H :    0.386313
   6 O :   -0.693168
   7 H :    0.374636
   8 H :    0.314562
   9 O :   -0.749538
  10 H :    0.368624
  11 H :    0.377358
  12 O :   -0.743909
  13 H :    0.377693
  14 H :    0.355362
  15 O :   -0.731514
  16 H :    0.378208
  17 H :    0.360099
  18 O :   -0.755281
  19 H :    0.386998
  20 H :    0.355813
  21 O :   -0.723356
  22 H :    0.386936
  23 H :    0.372422
  24 O :   -0.723295
  25 H :    0.388214
  26 H :    0.371028
Sum of atomic charges:    0.0000000

LOEWDIN ATOMIC CHARGES
----------------------
   0 O :   -0.317527
   1 H :    0.160299
   2 H :    0.146348
   3 O :   -0.317300
   4 H :    0.161127
   5 H :    0.146543
   6 O :   -0.338994
   7 H :    0.151120
   8 H :    0.155303
   9 O :   -0.297604
  10 H :    0.175295
  11 H :    0.146576
  12 O :   -0.297539
  13 H :    0.147643
  14 H :    0.168659
  15 O :   -0.315306
  16 H :    0.149324
  17 H :    0.139602
  18 O :   -0.300798
  19 H :    0.153190
  20 H :    0.139749
  21 O :   -0.284833
  22 H :    0.156418
  23 H :    0.150808
  24 O :   -0.285084
  25 H :    0.156904
  26 H :    0.150078

  Mayer bond orders larger than 0.100000
B(  0-O ,  1-H ) :   0.8388 B(  0-O ,  2-H ) :   0.7244 B(  2-H , 24-O ) :   0.1246
B(  3-O ,  4-H ) :   0.8383 B(  3-O ,  5-H ) :   0.7235 B(  5-H , 21-O ) :   0.1259
B(  6-O ,  7-H ) :   0.8151 B(  6-O ,  8-H ) :   0.8648 B(  9-O , 10-H ) :   0.8281
B(  9-O , 11-H ) :   0.7500 B( 11-H , 18-O ) :   0.1051 B( 12-O , 13-H ) :   0.7332
B( 12-O , 14-H ) :   0.8365 B( 13-H , 15-O ) :   0.1338 B( 15-O , 16-H ) :   0.8023
B( 15-O , 17-H ) :   0.7817 B( 18-O , 19-H ) :   0.7918 B( 18-O , 20-H ) :   0.7666
B( 21-O , 22-H ) :   0.8053 B( 21-O , 23-H ) :   0.7939 B( 24-O , 25-H ) :   0.8028
B( 24-O , 26-H ) :   0.7970

MP2 TOTAL ENERGY:     -686.948558533 Eh
FINAL SINGLE POINT ENERGY      -686.948558532501

DIPOLE MOMENT
-------------
                                X             Y             Z
Electronic contribution:     -0.07512       0.15889       0.16721
Nuclear contribution   :      0.45497      -0.56566       0.57908
                        -----------------------------------------
Total Dipole Moment    :      0.37985      -0.40676       0.74629
                        -----------------------------------------
Magnitude (a.u.)       :      0.93096
Magnitude (Debye)      :      2.36632

Rotational constants in cm-1:     0.030205     0.018579     0.018032
Rotational constants in MHz :   905.517140   556.975227   540.583455

                             ****ORCA TERMINATED NORMALLY****
TOTAL RUN TIME: 0 days 0 hours 5 minutes 30 seconds 447 msec
