                         Program Version 4.2.0 -  RELEASE  -
|  1> # 12meoh.boyd.etal.mol0,3,10
|  2> ! MP2 def2-TZVP EnGrad TightSCF
|  3>
|  4> %pal
|  5>     nprocs 6
|  6> end
|  7>
|  8> %maxcore 8000
|  9>
| 10> %scf
| 11>     ConvForced true
| 12> end
| 13>
| 14> *xyz 0 1
| 15> O  -1.776108874  -2.741384797  -1.019308298
| 16> H  -2.520094035  -2.452295987  -0.420778302
| 17> C  -2.174025166  -3.952700964  -1.647004581
| 18> H  -1.359803895  -4.272673416  -2.304149236
| 19> H  -3.075973971  -3.808692420  -2.256751112
| 20> H  -2.370225393  -4.752784761  -0.918966137
| 21> O  -3.821405976  -2.118091637   0.596795346
| 22> H  -4.342989117  -1.344303030   0.251966383
| 23> C  -3.443883586  -1.809641231   1.934889393
| 24> H  -2.831494349  -2.637429600   2.305201764
| 25> H  -4.325601146  -1.719364371   2.585074667
| 26> H  -2.858527126  -0.882644791   1.996110694
| 27> O  -5.201143618   0.064582726  -0.172223772
| 28> H  -4.686891530   0.869258890   0.107806143
| 29> C  -6.513192168   0.171391798   0.359883449
| 30> H  -7.049381312  -0.749234190   0.111361174
| 31> H  -7.057741163   1.017801101  -0.081819420
| 32> H  -6.514770575   0.292264928   1.453058834
| 33> *
| 34>
| 35>                          ****END OF INPUT****

CARTESIAN COORDINATES (ANGSTROEM)
---------------------------------
  O     -1.776109   -2.741385   -1.019308
  H     -2.520094   -2.452296   -0.420778
  C     -2.174025   -3.952701   -1.647005
  H     -1.359804   -4.272673   -2.304149
  H     -3.075974   -3.808692   -2.256751
  H     -2.370225   -4.752785   -0.918966
  O     -3.821406   -2.118092    0.596795
  H     -4.342989   -1.344303    0.251966
  C     -3.443884   -1.809641    1.934889
  H     -2.831494   -2.637430    2.305202
  H     -4.325601   -1.719364    2.585075
  H     -2.858527   -0.882645    1.996111
  O     -5.201144    0.064583   -0.172224
  H     -4.686892    0.869259    0.107806
  C     -6.513192    0.171392    0.359883
  H     -7.049381   -0.749234    0.111361
  H     -7.057741    1.017801   -0.081819
  H     -6.514771    0.292265    1.453059

 Total Charge           Charge          ....    0
 Multiplicity           Mult            ....    1
 Number of Electrons    NEL             ....   54
 Basis Dimension        Dim             ....  258

ORBITAL ENERGIES
----------------

  NO   OCC          E(Eh)            E(eV)
   0   2.0000     -20.602461      -560.6215
   1   2.0000     -20.550506      -559.2077
   2   2.0000     -20.499280      -557.8138
   3   2.0000     -11.300097      -307.4913
   4   2.0000     -11.273667      -306.7721
   5   2.0000     -11.236536      -305.7617
   6   2.0000      -1.396793       -38.0087
   7   2.0000      -1.351245       -36.7692
   8   2.0000      -1.296188       -35.2711
   9   2.0000      -0.952473       -25.9181
  10   2.0000      -0.922654       -25.1067
  11   2.0000      -0.882215       -24.0063
  12   2.0000      -0.729503       -19.8508
  13   2.0000      -0.703291       -19.1375
  14   2.0000      -0.657030       -17.8787
  15   2.0000      -0.646210       -17.5843
  16   2.0000      -0.625712       -17.0265
  17   2.0000      -0.614057       -16.7093
  18   2.0000      -0.586326       -15.9548
  19   2.0000      -0.577574       -15.7166
  20   2.0000      -0.548481       -14.9249
  21   2.0000      -0.540344       -14.7035
  22   2.0000      -0.509877       -13.8745
  23   2.0000      -0.481571       -13.1042
  24   2.0000      -0.466526       -12.6948
  25   2.0000      -0.435626       -11.8540
  26   2.0000      -0.402788       -10.9604
  27   0.0000       0.103985         2.8296
  28   0.0000       0.148915         4.0522
  29   0.0000       0.163793         4.4570
  30   0.0000       0.175754         4.7825
  31   0.0000       0.202526         5.5110

MULLIKEN ATOMIC CHARGES
-----------------------
   0 O :   -0.541516
   1 H :    0.347108
   2 C :   -0.153441
   3 H :    0.114062
   4 H :    0.093888
   5 H :    0.093302
   6 O :   -0.546072
   7 H :    0.378233
   8 C :   -0.196946
   9 H :    0.142262
  10 H :    0.112997
  11 H :    0.113009
  12 O :   -0.516457
  13 H :    0.345778
  14 C :   -0.194182
  15 H :    0.149612
  16 H :    0.132426
  17 H :    0.125937
Sum of atomic charges:    0.0000000

LOEWDIN ATOMIC CHARGES
----------------------
   0 O :   -0.129951
   1 H :    0.158411
   2 C :   -0.397681
   3 H :    0.102829
   4 H :    0.090557
   5 H :    0.090626
   6 O :   -0.083559
   7 H :    0.165265
   8 C :   -0.388816
   9 H :    0.114083
  10 H :    0.098683
  11 H :    0.096503
  12 O :   -0.069440
  13 H :    0.202296
  14 C :   -0.375416
  15 H :    0.117912
  16 H :    0.106396
  17 H :    0.101303

  Mayer bond orders larger than 0.100000
B(  0-O ,  1-H ) :   0.7827 B(  0-O ,  2-C ) :   0.9463 B(  1-H ,  6-O ) :   0.1033
B(  2-C ,  3-H ) :   0.9410 B(  2-C ,  4-H ) :   0.9427 B(  2-C ,  5-H ) :   0.9373
B(  6-O ,  7-H ) :   0.7614 B(  6-O ,  8-C ) :   0.8904 B(  8-C ,  9-H ) :   0.9422
B(  8-C , 10-H ) :   0.9350 B(  8-C , 11-H ) :   0.9403 B( 12-O , 13-H ) :   0.8256
B( 12-O , 14-C ) :   0.8682 B( 14-C , 15-H ) :   0.9384 B( 14-C , 16-H ) :   0.9350
B( 14-C , 17-H ) :   0.9365

MP2 TOTAL ENERGY:     -346.541444746 Eh
FINAL SINGLE POINT ENERGY      -346.541444746401

DIPOLE MOMENT
-------------
                                X             Y             Z
Electronic contribution:      1.32296       1.21609      -1.49105
Nuclear contribution   :     -2.87132       0.09104       2.51327
                        -----------------------------------------
Total Dipole Moment    :     -1.54836       1.30713       1.02222
                        -----------------------------------------
Magnitude (a.u.)       :      2.26957
Magnitude (Debye)      :      5.76879

Rotational constants in cm-1:     0.135636     0.033216     0.028910
Rotational constants in MHz :  4066.270959   995.781818   866.691742

                             ****ORCA TERMINATED NORMALLY****
TOTAL RUN TIME: 0 days 0 hours 1 minutes 29 seconds 915 msec
