                         Program Version 4.2.0 -  RELEASE  -
|  1> # 12h2o.su.etal.mol0,3,8,9,10
|  2> ! MP2 def2-TZVP EnGrad TightSCF
|  3>
|  4> %pal
|  5>     nprocs 6
|  6> end
|  7>
|  8> %maxcore 8000
|  9>
| 10> %scf
| 11>     ConvForced true
| 12> end
| 13>
| 14> *xyz 0 1
| 15> O   1.794470000   0.923410000   2.768350000
| 16> H   2.338250000   1.359750000   3.430940000
| 17> H   0.879480000   1.303000000   2.865760000
| 18> O  -1.752130000  -0.741530000  -2.896280000
| 19> H  -2.036450000  -0.920500000  -1.984040000
| 20> H  -0.921210000  -1.242140000  -2.984230000
| 21> O   1.752130000   0.741530000  -2.896280000
| 22> H   2.036450000   0.920500000  -1.984040000
| 23> H   0.921210000   1.242140000  -2.984230000
| 24> O   0.741530000  -1.752130000   2.896280000
| 25> H   0.920500000  -2.036450000   1.984040000
| 26> H   1.242140000  -0.921210000   2.984230000
| 27> O  -0.923410000   1.794470000  -2.768350000
| 28> H  -1.359750000   2.338250000  -3.430940000
| 29> H  -1.303000000   0.879480000  -2.865760000
| 30> *
| 31>
| 32>                          ****END OF INPUT****

CARTESIAN COORDINATES (ANGSTROEM)
---------------------------------
  O      1.794470    0.923410    2.768350
  H      2.338250    1.359750    3.430940
  H      0.879480    1.303000    2.865760
  O     -1.752130   -0.741530   -2.896280
  H     -2.036450   -0.920500   -1.984040
  H     -0.921210   -1.242140   -2.984230
  O      1.752130    0.741530   -2.896280
  H      2.036450    0.920500   -1.984040
  H      0.921210    1.242140   -2.984230
  O      0.741530   -1.752130    2.896280
  H      0.920500   -2.036450    1.984040
  H      1.242140   -0.921210    2.984230
  O     -0.923410    1.794470   -2.768350
  H     -1.359750    2.338250   -3.430940
  H     -1.303000    0.879480   -2.865760

 Total Charge           Charge          ....    0
 Multiplicity           Mult            ....    1
 Number of Electrons    NEL             ....   50
 Basis Dimension        Dim             ....  215

ORBITAL ENERGIES
----------------

  NO   OCC          E(Eh)            E(eV)
   0   2.0000     -20.603190      -560.6413
   1   2.0000     -20.594723      -560.4109
   2   2.0000     -20.547630      -559.1294
   3   2.0000     -20.536581      -558.8288
   4   2.0000     -20.529520      -558.6366
   5   2.0000      -1.388931       -37.7947
   6   2.0000      -1.372364       -37.3439
   7   2.0000      -1.332510       -36.2594
   8   2.0000      -1.318993       -35.8916
   9   2.0000      -1.311016       -35.6746
  10   2.0000      -0.745552       -20.2875
  11   2.0000      -0.739567       -20.1246
  12   2.0000      -0.717419       -19.5220
  13   2.0000      -0.688389       -18.7320
  14   2.0000      -0.680293       -18.5117
  15   2.0000      -0.627731       -17.0814
  16   2.0000      -0.611621       -16.6431
  17   2.0000      -0.583318       -15.8729
  18   2.0000      -0.562187       -15.2979
  19   2.0000      -0.552435       -15.0325
  20   2.0000      -0.530637       -14.4394
  21   2.0000      -0.530046       -14.4233
  22   2.0000      -0.495860       -13.4930
  23   2.0000      -0.484267       -13.1776
  24   2.0000      -0.477368       -12.9898
  25   0.0000       0.100325         2.7300
  26   0.0000       0.110482         3.0064
  27   0.0000       0.156849         4.2681
  28   0.0000       0.163050         4.4368
  29   0.0000       0.174934         4.7602

MULLIKEN ATOMIC CHARGES
-----------------------
   0 O :   -0.695667
   1 H :    0.355275
   2 H :    0.361035
   3 O :   -0.685019
   4 H :    0.360531
   5 H :    0.369522
   6 O :   -0.716414
   7 H :    0.329831
   8 H :    0.361069
   9 O :   -0.704617
  10 H :    0.327215
  11 H :    0.356895
  12 O :   -0.737103
  13 H :    0.340228
  14 H :    0.377218
Sum of atomic charges:   -0.0000000

LOEWDIN ATOMIC CHARGES
----------------------
   0 O :   -0.310897
   1 H :    0.164819
   2 H :    0.188630
   3 O :   -0.269788
   4 H :    0.175926
   5 H :    0.179819
   6 O :   -0.353133
   7 H :    0.160038
   8 H :    0.146631
   9 O :   -0.348787
  10 H :    0.159500
  11 H :    0.146810
  12 O :   -0.339543
  13 H :    0.155215
  14 H :    0.144759

  Mayer bond orders larger than 0.100000
B(  0-O ,  1-H ) :   0.8401 B(  0-O ,  2-H ) :   0.8304 B(  3-O ,  4-H ) :   0.8359
B(  3-O ,  5-H ) :   0.8262 B(  6-O ,  7-H ) :   0.8574 B(  6-O ,  8-H ) :   0.8064
B(  9-O , 10-H ) :   0.8594 B(  9-O , 11-H ) :   0.8187 B( 12-O , 13-H ) :   0.8491
B( 12-O , 14-H ) :   0.7670

MP2 TOTAL ENERGY:     -381.593399859 Eh
FINAL SINGLE POINT ENERGY      -381.593399858763

DIPOLE MOMENT
-------------
                                X             Y             Z
Electronic contribution:     -0.14286      -0.16781      -0.09797
Nuclear contribution   :     -0.42247       0.82514       0.68611
                        -----------------------------------------
Total Dipole Moment    :     -0.56533       0.65733       0.58813
                        -----------------------------------------
Magnitude (a.u.)       :      1.04766
Magnitude (Debye)      :      2.66294

Rotational constants in cm-1:     0.067651     0.019787     0.017544
Rotational constants in MHz :  2028.121294   593.190673   525.942786

                             ****ORCA TERMINATED NORMALLY****
TOTAL RUN TIME: 0 days 0 hours 0 minutes 29 seconds 578 msec
