                         Program Version 4.2.0 -  RELEASE  -
|  1> # 12mecn.remya.etal.2.mol2,5,6
|  2> ! MP2 def2-TZVP EnGrad TightSCF
|  3>
|  4> %pal
|  5>     nprocs 6
|  6> end
|  7>
|  8> %maxcore 8000
|  9>
| 10> %scf
| 11>     ConvForced true
| 12> end
| 13>
| 14> *xyz 0 1
| 15> C  -4.219070000  -3.477410000  -1.501740000
| 16> H  -3.251530000  -3.803540000  -1.893830000
| 17> H  -4.452920000  -2.481700000  -1.890840000
| 18> H  -4.992170000  -4.178130000  -1.824640000
| 19> C  -4.154550000  -3.418790000  -0.058340000
| 20> N  -4.091140000  -3.354840000   1.104432000
| 21> C  -1.955700000   2.515080000   1.698463000
| 22> H  -2.923830000   2.883163000   2.049269000
| 23> H  -1.154850000   3.171830000   2.050990000
| 24> H  -1.790380000   1.506115000   2.087896000
| 25> C  -1.948230000   2.482156000   0.253672000
| 26> N  -1.937550000   2.462523000  -0.913150000
| 27> C   5.300864000  -2.920090000   1.401103000
| 28> H   5.986071000  -2.139770000   1.737487000
| 29> H   5.636642000  -3.888750000   1.778233000
| 30> H   4.307359000  -2.697240000   1.799307000
| 31> C   5.234791000  -2.933140000  -0.043290000
| 32> N   5.170868000  -2.941760000  -1.207750000
| 33> *
| 34>
| 35>                          ****END OF INPUT****

CARTESIAN COORDINATES (ANGSTROEM)
---------------------------------
  C     -4.219070   -3.477410   -1.501740
  H     -3.251530   -3.803540   -1.893830
  H     -4.452920   -2.481700   -1.890840
  H     -4.992170   -4.178130   -1.824640
  C     -4.154550   -3.418790   -0.058340
  N     -4.091140   -3.354840    1.104432
  C     -1.955700    2.515080    1.698463
  H     -2.923830    2.883163    2.049269
  H     -1.154850    3.171830    2.050990
  H     -1.790380    1.506115    2.087896
  C     -1.948230    2.482156    0.253672
  N     -1.937550    2.462523   -0.913150
  C      5.300864   -2.920090    1.401103
  H      5.986071   -2.139770    1.737487
  H      5.636642   -3.888750    1.778233
  H      4.307359   -2.697240    1.799307
  C      5.234791   -2.933140   -0.043290
  N      5.170868   -2.941760   -1.207750

 Total Charge           Charge          ....    0
 Multiplicity           Mult            ....    1
 Number of Electrons    NEL             ....   66
 Basis Dimension        Dim             ....  333

ORBITAL ENERGIES
----------------

  NO   OCC          E(Eh)            E(eV)
   0   2.0000     -15.573098      -423.7656
   1   2.0000     -15.572817      -423.7579
   2   2.0000     -15.572536      -423.7502
   3   2.0000     -11.284873      -307.0770
   4   2.0000     -11.283644      -307.0436
   5   2.0000     -11.282668      -307.0170
   6   2.0000     -11.280507      -306.9582
   7   2.0000     -11.280025      -306.9451
   8   2.0000     -11.279865      -306.9407
   9   2.0000      -1.214904       -33.0592
  10   2.0000      -1.214688       -33.0534
  11   2.0000      -1.213913       -33.0323
  12   2.0000      -1.043893       -28.4058
  13   2.0000      -1.042590       -28.3703
  14   2.0000      -1.041789       -28.3485
  15   2.0000      -0.701251       -19.0820
  16   2.0000      -0.698818       -19.0158
  17   2.0000      -0.698451       -19.0058
  18   2.0000      -0.632893       -17.2219
  19   2.0000      -0.631536       -17.1850
  20   2.0000      -0.630143       -17.1471
  21   2.0000      -0.629512       -17.1299
  22   2.0000      -0.629349       -17.1254
  23   2.0000      -0.628849       -17.1118
  24   2.0000      -0.556509       -15.1434
  25   2.0000      -0.555910       -15.1271
  26   2.0000      -0.555542       -15.1171
  27   2.0000      -0.458062       -12.4645
  28   2.0000      -0.457978       -12.4622
  29   2.0000      -0.457754       -12.4561
  30   2.0000      -0.457480       -12.4487
  31   2.0000      -0.457141       -12.4394
  32   2.0000      -0.456849       -12.4315
  33   0.0000       0.116640         3.1739
  34   0.0000       0.119048         3.2395
  35   0.0000       0.125210         3.4071
  36   0.0000       0.171209         4.6588
  37   0.0000       0.171541         4.6679

MULLIKEN ATOMIC CHARGES
-----------------------
   0 C :   -0.279528
   1 H :    0.173996
   2 H :    0.177173
   3 H :    0.171117
   4 C :   -0.144906
   5 N :   -0.097839
   6 C :   -0.279084
   7 H :    0.172252
   8 H :    0.170717
   9 H :    0.176704
  10 C :   -0.145250
  11 N :   -0.095352
  12 C :   -0.280804
  13 H :    0.171857
  14 H :    0.172551
  15 H :    0.172187
  16 C :   -0.145562
  17 N :   -0.090229
Sum of atomic charges:    0.0000000

LOEWDIN ATOMIC CHARGES
----------------------
   0 C :   -0.282626
   1 H :    0.153747
   2 H :    0.154938
   3 H :    0.150959
   4 C :   -0.218170
   5 N :    0.041157
   6 C :   -0.283377
   7 H :    0.152895
   8 H :    0.152339
   9 H :    0.154081
  10 C :   -0.219336
  11 N :    0.043393
  12 C :   -0.283943
  13 H :    0.151425
  14 H :    0.151447
  15 H :    0.153065
  16 C :   -0.218893
  17 N :    0.046900

  Mayer bond orders larger than 0.100000
B(  0-C ,  1-H ) :   0.9154 B(  0-C ,  2-H ) :   0.9147 B(  0-C ,  3-H ) :   0.9165
B(  0-C ,  4-C ) :   0.9027 B(  4-C ,  5-N ) :   2.8411 B(  6-C ,  7-H ) :   0.9158
B(  6-C ,  8-H ) :   0.9166 B(  6-C ,  9-H ) :   0.9152 B(  6-C , 10-C ) :   0.9018
B( 10-C , 11-N ) :   2.8385 B( 12-C , 13-H ) :   0.9170 B( 12-C , 14-H ) :   0.9161
B( 12-C , 15-H ) :   0.9168 B( 12-C , 16-C ) :   0.9027 B( 16-C , 17-N ) :   2.8368

MP2 TOTAL ENERGY:     -397.450781062 Eh
FINAL SINGLE POINT ENERGY      -397.450781061871

DIPOLE MOMENT
-------------
                                X             Y             Z
Electronic contribution:      0.01960       0.01201      -3.13773
Nuclear contribution   :     -0.03234      -0.03997       4.65005
                        -----------------------------------------
Total Dipole Moment    :     -0.01274      -0.02796       1.51232
                        -----------------------------------------
Magnitude (a.u.)       :      1.51263
Magnitude (Debye)      :      3.84481

Rotational constants in cm-1:     0.017168     0.007612     0.005843
Rotational constants in MHz :   514.691604   228.205384   175.170471

                             ****ORCA TERMINATED NORMALLY****
TOTAL RUN TIME: 0 days 0 hours 1 minutes 39 seconds 938 msec
