                         Program Version 4.2.0 -  RELEASE  -
|  1> # 12h2o.su.etal.mol1,3,4,5,6,8,9,10,11
|  2> ! MP2 def2-TZVP EnGrad TightSCF
|  3>
|  4> %pal
|  5>     nprocs 6
|  6> end
|  7>
|  8> %maxcore 8000
|  9>
| 10> %scf
| 11>     ConvForced true
| 12> end
| 13>
| 14> *xyz 0 1
| 15> O  -1.794470000  -0.923410000   2.768350000
| 16> H  -2.338250000  -1.359750000   3.430940000
| 17> H  -0.879480000  -1.303000000   2.865760000
| 18> O  -1.752130000  -0.741530000  -2.896280000
| 19> H  -2.036450000  -0.920500000  -1.984040000
| 20> H  -0.921210000  -1.242140000  -2.984230000
| 21> O  -0.885520000   1.737840000   0.052730000
| 22> H  -1.032320000   2.090180000  -0.841890000
| 23> H  -1.284090000   0.839590000   0.017130000
| 24> O   0.885520000  -1.737840000   0.052730000
| 25> H   1.284090000  -0.839590000   0.017130000
| 26> H   1.032320000  -2.090180000  -0.841890000
| 27> O   1.737840000   0.885520000  -0.052730000
| 28> H   2.090180000   1.032320000   0.841890000
| 29> H   0.839590000   1.284090000  -0.017130000
| 30> O   1.752130000   0.741530000  -2.896280000
| 31> H   2.036450000   0.920500000  -1.984040000
| 32> H   0.921210000   1.242140000  -2.984230000
| 33> O   0.741530000  -1.752130000   2.896280000
| 34> H   0.920500000  -2.036450000   1.984040000
| 35> H   1.242140000  -0.921210000   2.984230000
| 36> O  -0.923410000   1.794470000  -2.768350000
| 37> H  -1.359750000   2.338250000  -3.430940000
| 38> H  -1.303000000   0.879480000  -2.865760000
| 39> O  -0.741530000   1.752130000   2.896280000
| 40> H  -0.920500000   2.036450000   1.984040000
| 41> H  -1.242140000   0.921210000   2.984230000
| 42> *
| 43>
| 44>                          ****END OF INPUT****

CARTESIAN COORDINATES (ANGSTROEM)
---------------------------------
  O     -1.794470   -0.923410    2.768350
  H     -2.338250   -1.359750    3.430940
  H     -0.879480   -1.303000    2.865760
  O     -1.752130   -0.741530   -2.896280
  H     -2.036450   -0.920500   -1.984040
  H     -0.921210   -1.242140   -2.984230
  O     -0.885520    1.737840    0.052730
  H     -1.032320    2.090180   -0.841890
  H     -1.284090    0.839590    0.017130
  O      0.885520   -1.737840    0.052730
  H      1.284090   -0.839590    0.017130
  H      1.032320   -2.090180   -0.841890
  O      1.737840    0.885520   -0.052730
  H      2.090180    1.032320    0.841890
  H      0.839590    1.284090   -0.017130
  O      1.752130    0.741530   -2.896280
  H      2.036450    0.920500   -1.984040
  H      0.921210    1.242140   -2.984230
  O      0.741530   -1.752130    2.896280
  H      0.920500   -2.036450    1.984040
  H      1.242140   -0.921210    2.984230
  O     -0.923410    1.794470   -2.768350
  H     -1.359750    2.338250   -3.430940
  H     -1.303000    0.879480   -2.865760
  O     -0.741530    1.752130    2.896280
  H     -0.920500    2.036450    1.984040
  H     -1.242140    0.921210    2.984230

 Total Charge           Charge          ....    0
 Multiplicity           Mult            ....    1
 Number of Electrons    NEL             ....   90
 Basis Dimension        Dim             ....  387

ORBITAL ENERGIES
----------------

  NO   OCC          E(Eh)            E(eV)
   0   2.0000     -20.624226      -561.2137
   1   2.0000     -20.598395      -560.5108
   2   2.0000     -20.588459      -560.2405
   3   2.0000     -20.588005      -560.2281
   4   2.0000     -20.574021      -559.8476
   5   2.0000     -20.572753      -559.8131
   6   2.0000     -20.542146      -558.9802
   7   2.0000     -20.526549      -558.5558
   8   2.0000     -20.512931      -558.1852
   9   2.0000      -1.410863       -38.3915
  10   2.0000      -1.390747       -37.8441
  11   2.0000      -1.375888       -37.4398
  12   2.0000      -1.369830       -37.2750
  13   2.0000      -1.365215       -37.1494
  14   2.0000      -1.351513       -36.7765
  15   2.0000      -1.325630       -36.0722
  16   2.0000      -1.311556       -35.6892
  17   2.0000      -1.297635       -35.3104
  18   2.0000      -0.766295       -20.8519
  19   2.0000      -0.756292       -20.5797
  20   2.0000      -0.746534       -20.3142
  21   2.0000      -0.742817       -20.2131
  22   2.0000      -0.731946       -19.9173
  23   2.0000      -0.719700       -19.5840
  24   2.0000      -0.709333       -19.3019
  25   2.0000      -0.691176       -18.8079
  26   2.0000      -0.677762       -18.4428
  27   2.0000      -0.656789       -17.8721
  28   2.0000      -0.636340       -17.3157
  29   2.0000      -0.623049       -16.9540
  30   2.0000      -0.614892       -16.7321
  31   2.0000      -0.607924       -16.5425
  32   2.0000      -0.593432       -16.1481
  33   2.0000      -0.568601       -15.4724
  34   2.0000      -0.562617       -15.3096
  35   2.0000      -0.553230       -15.0541
  36   2.0000      -0.543611       -14.7924
  37   2.0000      -0.533018       -14.5042
  38   2.0000      -0.532088       -14.4789
  39   2.0000      -0.524880       -14.2827
  40   2.0000      -0.521785       -14.1985
  41   2.0000      -0.510058       -13.8794
  42   2.0000      -0.489648       -13.3240
  43   2.0000      -0.476359       -12.9624
  44   2.0000      -0.462954       -12.5976
  45   0.0000       0.071256         1.9390
  46   0.0000       0.112935         3.0731
  47   0.0000       0.127676         3.4742
  48   0.0000       0.135894         3.6979
  49   0.0000       0.158055         4.3009

MULLIKEN ATOMIC CHARGES
-----------------------
   0 O :   -0.746933
   1 H :    0.338560
   2 H :    0.384692
   3 O :   -0.682097
   4 H :    0.361311
   5 H :    0.370708
   6 O :   -0.725469
   7 H :    0.391513
   8 H :    0.351732
   9 O :   -0.737282
  10 H :    0.359814
  11 H :    0.342703
  12 O :   -0.737025
  13 H :    0.358881
  14 H :    0.379903
  15 O :   -0.731223
  16 H :    0.369155
  17 H :    0.349187
  18 O :   -0.698480
  19 H :    0.390341
  20 H :    0.345023
  21 O :   -0.755539
  22 H :    0.358500
  23 H :    0.383597
  24 O :   -0.735995
  25 H :    0.362577
  26 H :    0.351846
Sum of atomic charges:    0.0000000

LOEWDIN ATOMIC CHARGES
----------------------
   0 O :   -0.344598
   1 H :    0.154429
   2 H :    0.146048
   3 O :   -0.263823
   4 H :    0.173954
   5 H :    0.179892
   6 O :   -0.278826
   7 H :    0.156654
   8 H :    0.172964
   9 O :   -0.342065
  10 H :    0.142492
  11 H :    0.163292
  12 O :   -0.292391
  13 H :    0.169652
  14 H :    0.148415
  15 O :   -0.354307
  16 H :    0.148789
  17 H :    0.140872
  18 O :   -0.275118
  19 H :    0.160354
  20 H :    0.167751
  21 O :   -0.313275
  22 H :    0.163273
  23 H :    0.146002
  24 O :   -0.358195
  25 H :    0.145050
  26 H :    0.142715

  Mayer bond orders larger than 0.100000
B(  0-O ,  1-H ) :   0.8498 B(  0-O ,  2-H ) :   0.7540 B(  3-O ,  4-H ) :   0.8339
B(  3-O ,  5-H ) :   0.8238 B(  6-O ,  7-H ) :   0.7847 B(  6-O ,  8-H ) :   0.8286
B(  9-O , 10-H ) :   0.7690 B(  9-O , 11-H ) :   0.8460 B( 12-O , 13-H ) :   0.8329
B( 12-O , 14-H ) :   0.7560 B( 15-O , 16-H ) :   0.8247 B( 15-O , 17-H ) :   0.8245
B( 18-O , 19-H ) :   0.7960 B( 18-O , 20-H ) :   0.8410 B( 21-O , 22-H ) :   0.8361
B( 21-O , 23-H ) :   0.7480 B( 24-O , 25-H ) :   0.8314 B( 24-O , 26-H ) :   0.8122

MP2 TOTAL ENERGY:     -686.912006678 Eh
FINAL SINGLE POINT ENERGY      -686.912006677945

DIPOLE MOMENT
-------------
                                X             Y             Z
Electronic contribution:     -0.03583      -0.07048      -0.29452
Nuclear contribution   :     -0.82456      -0.53418      -0.77428
                        -----------------------------------------
Total Dipole Moment    :     -0.86039      -0.60467      -1.06880
                        -----------------------------------------
Magnitude (a.u.)       :      1.49941
Magnitude (Debye)      :      3.81119

Rotational constants in cm-1:     0.029335     0.014462     0.013688
Rotational constants in MHz :   879.428387   433.564917   410.342084

                             ****ORCA TERMINATED NORMALLY****
TOTAL RUN TIME: 0 days 0 hours 4 minutes 40 seconds 264 msec
