                         Program Version 4.2.0 -  RELEASE  -
|  1> ! MP2 def2-TZVP EnGrad TightSCF FrozenCore
|  2>
|  3> %pal
|  4>     nprocs 12
|  5> end
|  6>
|  7> %maxcore 8000
|  8>
|  9> %scf
| 10>     ConvForced true
| 11> end
| 12>
| 13> *xyz 0 1
| 14> O    -0.8871957286     1.5693055405    -1.350190657
| 15> H     0.0498614774     1.5680550289    -1.0146189983
| 16> C    -0.835286729      1.639095644     -2.7692041593
| 17> H    -1.8629976013     1.6060958882    -3.1426406561
| 18> H    -0.2771840619     0.8004562241    -3.2093943824
| 19> H    -0.3745813639     2.57790283      -3.1055409587
| 20> O    -2.1432313167    -0.6161239676    -0.4074593164
| 21> H    -1.6706284074     0.181943356     -0.7684397618
| 22> C    -3.4230201959    -0.203362932      0.0464374014
| 23> H    -3.9355007019    -1.0830178139     0.4474618987
| 24> H    -4.0292184628     0.201169892     -0.776139792
| 25> H    -3.3637530008     0.5581722399     0.8382150011
| 26> O     2.0127767166    -0.866562072      0.7468651391
| 27> H     1.1125165646    -1.2399979983     0.9466867155
| 28> C     2.7787260033    -1.881800797      0.1122688299
| 29> H     3.7588390298    -1.4589702229    -0.1267963818
| 30> H     2.3146857701    -2.2353307205    -0.8197833474
| 31> H     2.9252721888    -2.7444293893     0.7763752403
| 32> O     1.679203409      1.4599763028    -0.5569303163
| 33> H     1.8277310885     0.581264382     -0.113651677
| 34> C     2.1600100327     2.4759201698     0.3121034994
| 35> H     1.9619207929     3.4415483593    -0.162172686
| 36> H     3.2429011987     2.384288079      0.4729818685
| 37> H     1.6608359574     2.460137739      1.2918276032
| 38> O    -0.4237229873    -1.8990131216     1.2386185919
| 39> H    -1.086864322     -1.4808449201     0.6273012638
| 40> C    -0.8788465676    -1.7312873058     2.5731408816
| 41> H    -0.1068494281    -2.1253107269     3.2402849999
| 42> H    -1.8080590345    -2.2899884818     2.7534107248
| 43> H    -1.0510636885    -0.675193876      2.8289270772
| 44> *
| 45>
| 46>                          ****END OF INPUT****

CARTESIAN COORDINATES (ANGSTROEM)
---------------------------------
  O     -0.887196    1.569306   -1.350191
  H      0.049861    1.568055   -1.014619
  C     -0.835287    1.639096   -2.769204
  H     -1.862998    1.606096   -3.142641
  H     -0.277184    0.800456   -3.209394
  H     -0.374581    2.577903   -3.105541
  O     -2.143231   -0.616124   -0.407459
  H     -1.670628    0.181943   -0.768440
  C     -3.423020   -0.203363    0.046437
  H     -3.935501   -1.083018    0.447462
  H     -4.029218    0.201170   -0.776140
  H     -3.363753    0.558172    0.838215
  O      2.012777   -0.866562    0.746865
  H      1.112517   -1.239998    0.946687
  C      2.778726   -1.881801    0.112269
  H      3.758839   -1.458970   -0.126796
  H      2.314686   -2.235331   -0.819783
  H      2.925272   -2.744429    0.776375
  O      1.679203    1.459976   -0.556930
  H      1.827731    0.581264   -0.113652
  C      2.160010    2.475920    0.312103
  H      1.961921    3.441548   -0.162173
  H      3.242901    2.384288    0.472982
  H      1.660836    2.460138    1.291828
  O     -0.423723   -1.899013    1.238619
  H     -1.086864   -1.480845    0.627301
  C     -0.878847   -1.731287    2.573141
  H     -0.106849   -2.125311    3.240285
  H     -1.808059   -2.289988    2.753411
  H     -1.051064   -0.675194    2.828927

 Total Charge           Charge          ....    0
 Multiplicity           Mult            ....    1
 Number of Electrons    NEL             ....   90
 Basis Dimension        Dim             ....  430

ORBITAL ENERGIES
----------------

  NO   OCC          E(Eh)            E(eV)
   0   2.0000     -20.548906      -559.1642
   1   2.0000     -20.547273      -559.1197
   2   2.0000     -20.547160      -559.1166
   3   2.0000     -20.547058      -559.1139
   4   2.0000     -20.546877      -559.1089
   5   2.0000     -11.270611      -306.6889
   6   2.0000     -11.269316      -306.6537
   7   2.0000     -11.267506      -306.6044
   8   2.0000     -11.266836      -306.5862
   9   2.0000     -11.266826      -306.5859
  10   2.0000      -1.365360       -37.1533
  11   2.0000      -1.354368       -36.8542
  12   2.0000      -1.353713       -36.8364
  13   2.0000      -1.335692       -36.3460
  14   2.0000      -1.334462       -36.3126
  15   2.0000      -0.925170       -25.1752
  16   2.0000      -0.920589       -25.0505
  17   2.0000      -0.919100       -25.0100
  18   2.0000      -0.913159       -24.8483
  19   2.0000      -0.912423       -24.8283
  20   2.0000      -0.715159       -19.4605
  21   2.0000      -0.714718       -19.4485
  22   2.0000      -0.685331       -18.6488
  23   2.0000      -0.683915       -18.6103
  24   2.0000      -0.675020       -18.3682
  25   2.0000      -0.617255       -16.7964
  26   2.0000      -0.613901       -16.7051
  27   2.0000      -0.613189       -16.6857
  28   2.0000      -0.612255       -16.6603
  29   2.0000      -0.609793       -16.5933
  30   2.0000      -0.595255       -16.1977
  31   2.0000      -0.588834       -16.0230
  32   2.0000      -0.588116       -16.0034
  33   2.0000      -0.586456       -15.9583
  34   2.0000      -0.584637       -15.9088
  35   2.0000      -0.521123       -14.1805
  36   2.0000      -0.518806       -14.1174
  37   2.0000      -0.496005       -13.4970
  38   2.0000      -0.494722       -13.4621
  39   2.0000      -0.479588       -13.0503
  40   2.0000      -0.446628       -12.1534
  41   2.0000      -0.443622       -12.0716
  42   2.0000      -0.442859       -12.0508
  43   2.0000      -0.442084       -12.0297
  44   2.0000      -0.441784       -12.0215
  45   0.0000       0.125087         3.4038
  46   0.0000       0.147401         4.0110
  47   0.0000       0.156213         4.2508
  48   0.0000       0.161165         4.3855
  49   0.0000       0.180503         4.9117

MULLIKEN ATOMIC CHARGES
-----------------------
   0 O :   -0.563741
   1 H :    0.368286
   2 C :   -0.169157
   3 H :    0.124296
   4 H :    0.121175
   5 H :    0.118819
   6 O :   -0.572865
   7 H :    0.369691
   8 C :   -0.168520
   9 H :    0.125557
  10 H :    0.120002
  11 H :    0.117374
  12 O :   -0.567828
  13 H :    0.370986
  14 C :   -0.167967
  15 H :    0.125837
  16 H :    0.119965
  17 H :    0.120284
  18 O :   -0.565532
  19 H :    0.369548
  20 C :   -0.166376
  21 H :    0.126005
  22 H :    0.119589
  23 H :    0.116685
  24 O :   -0.559524
  25 H :    0.382297
  26 C :   -0.185218
  27 H :    0.133168
  28 H :    0.120179
  29 H :    0.116988
Sum of atomic charges:   -0.0000000

LOEWDIN ATOMIC CHARGES
----------------------
   0 O :   -0.090909
   1 H :    0.164776
   2 C :   -0.386312
   3 H :    0.107469
   4 H :    0.100571
   5 H :    0.102967
   6 O :   -0.090047
   7 H :    0.165008
   8 C :   -0.388697
   9 H :    0.107808
  10 H :    0.102920
  11 H :    0.098635
  12 O :   -0.089825
  13 H :    0.165415
  14 C :   -0.384978
  15 H :    0.108079
  16 H :    0.100402
  17 H :    0.103398
  18 O :   -0.089334
  19 H :    0.164895
  20 C :   -0.386111
  21 H :    0.108039
  22 H :    0.103131
  23 H :    0.099435
  24 O :   -0.085886
  25 H :    0.166610
  26 C :   -0.388585
  27 H :    0.109843
  28 H :    0.102366
  29 H :    0.098917

  Mayer bond orders larger than 0.100000
B(  0-O ,  1-H ) :   0.7365 B(  0-O ,  2-C ) :   0.8861 B(  0-O ,  7-H ) :   0.1285
B(  1-H , 18-O ) :   0.1304 B(  2-C ,  3-H ) :   0.9411 B(  2-C ,  4-H ) :   0.9406
B(  2-C ,  5-H ) :   0.9384 B(  6-O ,  7-H ) :   0.7321 B(  6-O ,  8-C ) :   0.8864
B(  6-O , 25-H ) :   0.1027 B(  8-C ,  9-H ) :   0.9416 B(  8-C , 10-H ) :   0.9373
B(  8-C , 11-H ) :   0.9419 B( 12-O , 13-H ) :   0.7340 B( 12-O , 14-C ) :   0.8860
B( 12-O , 19-H ) :   0.1291 B( 13-H , 24-O ) :   0.1270 B( 14-C , 15-H ) :   0.9411
B( 14-C , 16-H ) :   0.9405 B( 14-C , 17-H ) :   0.9384 B( 18-O , 19-H ) :   0.7344
B( 18-O , 20-C ) :   0.8874 B( 20-C , 21-H ) :   0.9413 B( 20-C , 22-H ) :   0.9387
B( 20-C , 23-H ) :   0.9400 B( 24-O , 25-H ) :   0.7425 B( 24-O , 26-C ) :   0.8885
B( 26-C , 27-H ) :   0.9416 B( 26-C , 28-H ) :   0.9388 B( 26-C , 29-H ) :   0.9378

MP2 TOTAL ENERGY:     -577.608096493 Eh
FINAL SINGLE POINT ENERGY      -577.608096493022

DIPOLE MOMENT
-------------
                                X             Y             Z
Electronic contribution:      0.61160      -0.86692      -0.78926
Nuclear contribution   :     -0.74737       1.07866       1.03299
                        -----------------------------------------
Total Dipole Moment    :     -0.13577       0.21174       0.24373
                        -----------------------------------------
Magnitude (a.u.)       :      0.35025
Magnitude (Debye)      :      0.89026

Rotational constants in cm-1:     0.024049     0.022862     0.014025
Rotational constants in MHz :   720.978501   685.376691   420.462764

                             ****ORCA TERMINATED NORMALLY****
TOTAL RUN TIME: 0 days 0 hours 5 minutes 33 seconds 521 msec
