                         Program Version 4.2.0 -  RELEASE  -
|  1> # 12h2o.su.etal.mol2,4,5,6,8,9,10,11
|  2> ! MP2 def2-TZVP EnGrad TightSCF
|  3>
|  4> %pal
|  5>     nprocs 6
|  6> end
|  7>
|  8> %maxcore 8000
|  9>
| 10> %scf
| 11>     ConvForced true
| 12> end
| 13>
| 14> *xyz 0 1
| 15> O   0.923410000  -1.794470000  -2.768350000
| 16> H   1.359750000  -2.338250000  -3.430940000
| 17> H   1.303000000  -0.879480000  -2.865760000
| 18> O  -0.885520000   1.737840000   0.052730000
| 19> H  -1.032320000   2.090180000  -0.841890000
| 20> H  -1.284090000   0.839590000   0.017130000
| 21> O   0.885520000  -1.737840000   0.052730000
| 22> H   1.284090000  -0.839590000   0.017130000
| 23> H   1.032320000  -2.090180000  -0.841890000
| 24> O   1.737840000   0.885520000  -0.052730000
| 25> H   2.090180000   1.032320000   0.841890000
| 26> H   0.839590000   1.284090000  -0.017130000
| 27> O   1.752130000   0.741530000  -2.896280000
| 28> H   2.036450000   0.920500000  -1.984040000
| 29> H   0.921210000   1.242140000  -2.984230000
| 30> O   0.741530000  -1.752130000   2.896280000
| 31> H   0.920500000  -2.036450000   1.984040000
| 32> H   1.242140000  -0.921210000   2.984230000
| 33> O  -0.923410000   1.794470000  -2.768350000
| 34> H  -1.359750000   2.338250000  -3.430940000
| 35> H  -1.303000000   0.879480000  -2.865760000
| 36> O  -0.741530000   1.752130000   2.896280000
| 37> H  -0.920500000   2.036450000   1.984040000
| 38> H  -1.242140000   0.921210000   2.984230000
| 39> *
| 40>
| 41>                          ****END OF INPUT****

CARTESIAN COORDINATES (ANGSTROEM)
---------------------------------
  O      0.923410   -1.794470   -2.768350
  H      1.359750   -2.338250   -3.430940
  H      1.303000   -0.879480   -2.865760
  O     -0.885520    1.737840    0.052730
  H     -1.032320    2.090180   -0.841890
  H     -1.284090    0.839590    0.017130
  O      0.885520   -1.737840    0.052730
  H      1.284090   -0.839590    0.017130
  H      1.032320   -2.090180   -0.841890
  O      1.737840    0.885520   -0.052730
  H      2.090180    1.032320    0.841890
  H      0.839590    1.284090   -0.017130
  O      1.752130    0.741530   -2.896280
  H      2.036450    0.920500   -1.984040
  H      0.921210    1.242140   -2.984230
  O      0.741530   -1.752130    2.896280
  H      0.920500   -2.036450    1.984040
  H      1.242140   -0.921210    2.984230
  O     -0.923410    1.794470   -2.768350
  H     -1.359750    2.338250   -3.430940
  H     -1.303000    0.879480   -2.865760
  O     -0.741530    1.752130    2.896280
  H     -0.920500    2.036450    1.984040
  H     -1.242140    0.921210    2.984230

 Total Charge           Charge          ....    0
 Multiplicity           Mult            ....    1
 Number of Electrons    NEL             ....   80
 Basis Dimension        Dim             ....  344

ORBITAL ENERGIES
----------------

  NO   OCC          E(Eh)            E(eV)
   0   2.0000     -20.642677      -561.7158
   1   2.0000     -20.612270      -560.8884
   2   2.0000     -20.588390      -560.2386
   3   2.0000     -20.568467      -559.6964
   4   2.0000     -20.545063      -559.0596
   5   2.0000     -20.541990      -558.9760
   6   2.0000     -20.521647      -558.4224
   7   2.0000     -20.518713      -558.3426
   8   2.0000      -1.423762       -38.7425
   9   2.0000      -1.399211       -38.0745
  10   2.0000      -1.376201       -37.4483
  11   2.0000      -1.359986       -37.0071
  12   2.0000      -1.329088       -36.1663
  13   2.0000      -1.323934       -36.0261
  14   2.0000      -1.309810       -35.6418
  15   2.0000      -1.297854       -35.3164
  16   2.0000      -0.788810       -21.4646
  17   2.0000      -0.761406       -20.7189
  18   2.0000      -0.745847       -20.2955
  19   2.0000      -0.728254       -19.8168
  20   2.0000      -0.712143       -19.3784
  21   2.0000      -0.696991       -18.9661
  22   2.0000      -0.690005       -18.7760
  23   2.0000      -0.668950       -18.2031
  24   2.0000      -0.666754       -18.1433
  25   2.0000      -0.636513       -17.3204
  26   2.0000      -0.633498       -17.2384
  27   2.0000      -0.597480       -16.2583
  28   2.0000      -0.589607       -16.0440
  29   2.0000      -0.577152       -15.7051
  30   2.0000      -0.562554       -15.3079
  31   2.0000      -0.556277       -15.1371
  32   2.0000      -0.546973       -14.8839
  33   2.0000      -0.537833       -14.6352
  34   2.0000      -0.518779       -14.1167
  35   2.0000      -0.509503       -13.8643
  36   2.0000      -0.492563       -13.4033
  37   2.0000      -0.488800       -13.3009
  38   2.0000      -0.473816       -12.8932
  39   2.0000      -0.464238       -12.6326
  40   0.0000       0.071118         1.9352
  41   0.0000       0.113345         3.0843
  42   0.0000       0.138920         3.7802
  43   0.0000       0.146283         3.9806
  44   0.0000       0.168719         4.5911

MULLIKEN ATOMIC CHARGES
-----------------------
   0 O :   -0.746436
   1 H :    0.337096
   2 H :    0.370086
   3 O :   -0.727864
   4 H :    0.389565
   5 H :    0.363415
   6 O :   -0.749776
   7 H :    0.336303
   8 H :    0.372240
   9 O :   -0.736958
  10 H :    0.364554
  11 H :    0.373920
  12 O :   -0.712356
  13 H :    0.388968
  14 H :    0.361363
  15 O :   -0.702503
  16 H :    0.376111
  17 H :    0.314033
  18 O :   -0.729476
  19 H :    0.375681
  20 H :    0.381526
  21 O :   -0.702151
  22 H :    0.364787
  23 H :    0.337873
Sum of atomic charges:   -0.0000000

LOEWDIN ATOMIC CHARGES
----------------------
   0 O :   -0.346495
   1 H :    0.153520
   2 H :    0.142304
   3 O :   -0.280396
   4 H :    0.156667
   5 H :    0.180359
   6 O :   -0.351712
   7 H :    0.133753
   8 H :    0.149471
   9 O :   -0.294706
  10 H :    0.172905
  11 H :    0.146504
  12 O :   -0.283012
  13 H :    0.157675
  14 H :    0.147074
  15 O :   -0.343789
  16 H :    0.153157
  17 H :    0.152351
  18 O :   -0.288962
  19 H :    0.173580
  20 H :    0.196423
  21 O :   -0.338977
  22 H :    0.148036
  23 H :    0.164267

  Mayer bond orders larger than 0.100000
B(  0-O ,  1-H ) :   0.8504 B(  0-O ,  2-H ) :   0.7540 B(  2-H , 12-O ) :   0.1074
B(  3-O ,  4-H ) :   0.7949 B(  3-O ,  5-H ) :   0.8228 B(  6-O ,  7-H ) :   0.7956
B(  6-O ,  8-H ) :   0.8062 B(  9-O , 10-H ) :   0.8304 B(  9-O , 11-H ) :   0.7661
B( 12-O , 13-H ) :   0.8023 B( 12-O , 14-H ) :   0.8175 B( 15-O , 16-H ) :   0.8082
B( 15-O , 17-H ) :   0.8628 B( 18-O , 19-H ) :   0.8256 B( 18-O , 20-H ) :   0.8116
B( 21-O , 22-H ) :   0.8273 B( 21-O , 23-H ) :   0.8483

MP2 TOTAL ENERGY:     -610.580718436 Eh
FINAL SINGLE POINT ENERGY      -610.580718436441

DIPOLE MOMENT
-------------
                                X             Y             Z
Electronic contribution:     -0.12919       0.50645      -0.15188
Nuclear contribution   :     -0.90936       1.01960      -2.72557
                        -----------------------------------------
Total Dipole Moment    :     -1.03856       1.52605      -2.87745
                        -----------------------------------------
Magnitude (a.u.)       :      3.41865
Magnitude (Debye)      :      8.68951

Rotational constants in cm-1:     0.033004     0.020666     0.014839
Rotational constants in MHz :   989.444234   619.548187   444.851331

                             ****ORCA TERMINATED NORMALLY****
TOTAL RUN TIME: 0 days 0 hours 3 minutes 12 seconds 804 msec
