                         Program Version 4.2.0 -  RELEASE  -
|  1> # 12h2o.su.etal.mol2,4,7,9
|  2> ! MP2 def2-TZVP EnGrad TightSCF
|  3>
|  4> %pal
|  5>     nprocs 6
|  6> end
|  7>
|  8> %maxcore 8000
|  9>
| 10> %scf
| 11>     ConvForced true
| 12> end
| 13>
| 14> *xyz 0 1
| 15> O   0.923410000  -1.794470000  -2.768350000
| 16> H   1.359750000  -2.338250000  -3.430940000
| 17> H   1.303000000  -0.879480000  -2.865760000
| 18> O  -0.885520000   1.737840000   0.052730000
| 19> H  -1.032320000   2.090180000  -0.841890000
| 20> H  -1.284090000   0.839590000   0.017130000
| 21> O  -1.737840000  -0.885520000  -0.052730000
| 22> H  -2.090180000  -1.032320000   0.841890000
| 23> H  -0.839590000  -1.284090000  -0.017130000
| 24> O   0.741530000  -1.752130000   2.896280000
| 25> H   0.920500000  -2.036450000   1.984040000
| 26> H   1.242140000  -0.921210000   2.984230000
| 27> *
| 28>
| 29>                          ****END OF INPUT****

CARTESIAN COORDINATES (ANGSTROEM)
---------------------------------
  O      0.923410   -1.794470   -2.768350
  H      1.359750   -2.338250   -3.430940
  H      1.303000   -0.879480   -2.865760
  O     -0.885520    1.737840    0.052730
  H     -1.032320    2.090180   -0.841890
  H     -1.284090    0.839590    0.017130
  O     -1.737840   -0.885520   -0.052730
  H     -2.090180   -1.032320    0.841890
  H     -0.839590   -1.284090   -0.017130
  O      0.741530   -1.752130    2.896280
  H      0.920500   -2.036450    1.984040
  H      1.242140   -0.921210    2.984230

 Total Charge           Charge          ....    0
 Multiplicity           Mult            ....    1
 Number of Electrons    NEL             ....   40
 Basis Dimension        Dim             ....  172

ORBITAL ENERGIES
----------------

  NO   OCC          E(Eh)            E(eV)
   0   2.0000     -20.586397      -560.1843
   1   2.0000     -20.574984      -559.8738
   2   2.0000     -20.571750      -559.7858
   3   2.0000     -20.526385      -558.5513
   4   2.0000      -1.366938       -37.1963
   5   2.0000      -1.350746       -36.7557
   6   2.0000      -1.350238       -36.7418
   7   2.0000      -1.307478       -35.5783
   8   2.0000      -0.724749       -19.7214
   9   2.0000      -0.718485       -19.5510
  10   2.0000      -0.713496       -19.4152
  11   2.0000      -0.683118       -18.5886
  12   2.0000      -0.606701       -16.5092
  13   2.0000      -0.588112       -16.0033
  14   2.0000      -0.586985       -15.9727
  15   2.0000      -0.559592       -15.2273
  16   2.0000      -0.518279       -14.1031
  17   2.0000      -0.515727       -14.0336
  18   2.0000      -0.514144       -13.9906
  19   2.0000      -0.474839       -12.9210
  20   0.0000       0.090548         2.4639
  21   0.0000       0.120338         3.2746
  22   0.0000       0.154331         4.1996
  23   0.0000       0.168392         4.5822
  24   0.0000       0.181092         4.9278

MULLIKEN ATOMIC CHARGES
-----------------------
   0 O :   -0.688430
   1 H :    0.343653
   2 H :    0.346683
   3 O :   -0.718605
   4 H :    0.325664
   5 H :    0.354066
   6 O :   -0.678405
   7 H :    0.359243
   8 H :    0.352839
   9 O :   -0.673689
  10 H :    0.329793
  11 H :    0.347188
Sum of atomic charges:   -0.0000000

LOEWDIN ATOMIC CHARGES
----------------------
   0 O :   -0.340807
   1 H :    0.160266
   2 H :    0.182412
   3 O :   -0.365544
   4 H :    0.157204
   5 H :    0.141342
   6 O :   -0.286675
   7 H :    0.173467
   8 H :    0.175749
   9 O :   -0.329242
  10 H :    0.160395
  11 H :    0.171432

  Mayer bond orders larger than 0.100000
B(  0-O ,  1-H ) :   0.8502 B(  0-O ,  2-H ) :   0.8426 B(  3-O ,  4-H ) :   0.8599
B(  3-O ,  5-H ) :   0.7989 B(  6-O ,  7-H ) :   0.8358 B(  6-O ,  8-H ) :   0.8338
B(  9-O , 10-H ) :   0.8558 B(  9-O , 11-H ) :   0.8467

MP2 TOTAL ENERGY:     -305.262314579 Eh
FINAL SINGLE POINT ENERGY      -305.262314578652

DIPOLE MOMENT
-------------
                                X             Y             Z
Electronic contribution:     -0.25482      -0.24740       0.22168
Nuclear contribution   :      1.24525      -0.14439      -1.31870
                        -----------------------------------------
Total Dipole Moment    :      0.99043      -0.39179      -1.09702
                        -----------------------------------------
Magnitude (a.u.)       :      1.52902
Magnitude (Debye)      :      3.88647

Rotational constants in cm-1:     0.070018     0.049304     0.034899
Rotational constants in MHz :  2099.077818  1478.105492  1046.238449

                             ****ORCA TERMINATED NORMALLY****
TOTAL RUN TIME: 0 days 0 hours 0 minutes 42 seconds 422 msec
