                         Program Version 4.2.0 -  RELEASE  -
|  1> # 12mecn.remya.etal.2.mol1,3,8
|  2> ! MP2 def2-TZVP EnGrad TightSCF
|  3>
|  4> %pal
|  5>     nprocs 6
|  6> end
|  7>
|  8> %maxcore 8000
|  9>
| 10> %scf
| 11>     ConvForced true
| 12> end
| 13>
| 14> *xyz 0 1
| 15> C  -4.697980000  -0.249690000   1.746215000
| 16> H  -4.927570000   0.755530000   2.111799000
| 17> H  -3.709180000  -0.561560000   2.093253000
| 18> H  -5.432280000  -0.961520000   2.128066000
| 19> C  -4.714100000  -0.247110000   0.301670000
| 20> N  -4.729750000  -0.234960000  -0.865260000
| 21> C  -5.181310000   2.853865000  -1.626100000
| 22> H  -5.488260000   3.811434000  -2.053310000
| 23> H  -5.857590000   2.068112000  -1.968630000
| 24> H  -4.170750000   2.611402000  -1.966640000
| 25> C  -5.187260000   2.919160000  -0.181450000
| 26> N  -5.181700000   2.970641000   0.983640000
| 27> C   1.912641000  -2.468050000  -1.750510000
| 28> H   2.876947000  -2.793500000  -2.151200000
| 29> H   1.688016000  -1.463720000  -2.122170000
| 30> H   1.123460000  -3.154780000  -2.069590000
| 31> C   1.977850000  -2.444240000  -0.306900000
| 32> N   2.036566000  -2.426130000   0.858249000
| 33> *
| 34>
| 35>                          ****END OF INPUT****

CARTESIAN COORDINATES (ANGSTROEM)
---------------------------------
  C     -4.697980   -0.249690    1.746215
  H     -4.927570    0.755530    2.111799
  H     -3.709180   -0.561560    2.093253
  H     -5.432280   -0.961520    2.128066
  C     -4.714100   -0.247110    0.301670
  N     -4.729750   -0.234960   -0.865260
  C     -5.181310    2.853865   -1.626100
  H     -5.488260    3.811434   -2.053310
  H     -5.857590    2.068112   -1.968630
  H     -4.170750    2.611402   -1.966640
  C     -5.187260    2.919160   -0.181450
  N     -5.181700    2.970641    0.983640
  C      1.912641   -2.468050   -1.750510
  H      2.876947   -2.793500   -2.151200
  H      1.688016   -1.463720   -2.122170
  H      1.123460   -3.154780   -2.069590
  C      1.977850   -2.444240   -0.306900
  N      2.036566   -2.426130    0.858249

 Total Charge           Charge          ....    0
 Multiplicity           Mult            ....    1
 Number of Electrons    NEL             ....   66
 Basis Dimension        Dim             ....  333

ORBITAL ENERGIES
----------------

  NO   OCC          E(Eh)            E(eV)
   0   2.0000     -15.573230      -423.7691
   1   2.0000     -15.570717      -423.7008
   2   2.0000     -15.570359      -423.6910
   3   2.0000     -11.284916      -307.0782
   4   2.0000     -11.282812      -307.0209
   5   2.0000     -11.282564      -307.0142
   6   2.0000     -11.280396      -306.9552
   7   2.0000     -11.272837      -306.7495
   8   2.0000     -11.270287      -306.6801
   9   2.0000      -1.218071       -33.1454
  10   2.0000      -1.214723       -33.0543
  11   2.0000      -1.213239       -33.0139
  12   2.0000      -1.043685       -28.4001
  13   2.0000      -1.036081       -28.1932
  14   2.0000      -1.033079       -28.1115
  15   2.0000      -0.699458       -19.0332
  16   2.0000      -0.695078       -18.9140
  17   2.0000      -0.690543       -18.7906
  18   2.0000      -0.632581       -17.2134
  19   2.0000      -0.631227       -17.1766
  20   2.0000      -0.630747       -17.1635
  21   2.0000      -0.621116       -16.9014
  22   2.0000      -0.618063       -16.8183
  23   2.0000      -0.615817       -16.7572
  24   2.0000      -0.558935       -15.2094
  25   2.0000      -0.556137       -15.1333
  26   2.0000      -0.555792       -15.1239
  27   2.0000      -0.463189       -12.6040
  28   2.0000      -0.458246       -12.4695
  29   2.0000      -0.457913       -12.4605
  30   2.0000      -0.457651       -12.4533
  31   2.0000      -0.456919       -12.4334
  32   2.0000      -0.452469       -12.3123
  33   0.0000       0.119221         3.2442
  34   0.0000       0.127057         3.4574
  35   0.0000       0.145683         3.9642
  36   0.0000       0.171469         4.6659
  37   0.0000       0.171931         4.6785

MULLIKEN ATOMIC CHARGES
-----------------------
   0 C :   -0.287209
   1 H :    0.205653
   2 H :    0.170667
   3 H :    0.166159
   4 C :   -0.111345
   5 N :   -0.144247
   6 C :   -0.263339
   7 H :    0.171229
   8 H :    0.184837
   9 H :    0.170697
  10 C :   -0.115863
  11 N :   -0.147244
  12 C :   -0.278010
  13 H :    0.171801
  14 H :    0.172354
  15 H :    0.173411
  16 C :   -0.146113
  17 N :   -0.093438
Sum of atomic charges:   -0.0000000

LOEWDIN ATOMIC CHARGES
----------------------
   0 C :   -0.281481
   1 H :    0.157347
   2 H :    0.153874
   3 H :    0.150658
   4 C :   -0.208829
   5 N :    0.031430
   6 C :   -0.284995
   7 H :    0.148561
   8 H :    0.155901
   9 H :    0.156106
  10 C :   -0.208840
  11 N :    0.030266
  12 C :   -0.283486
  13 H :    0.152643
  14 H :    0.152940
  15 H :    0.153027
  16 C :   -0.219733
  17 N :    0.044610

  Mayer bond orders larger than 0.100000
B(  0-C ,  1-H ) :   0.9014 B(  0-C ,  2-H ) :   0.9139 B(  0-C ,  3-H ) :   0.9163
B(  0-C ,  4-C ) :   0.8998 B(  4-C ,  5-N ) :   2.7925 B(  6-C ,  7-H ) :   0.9105
B(  6-C ,  8-H ) :   0.9103 B(  6-C ,  9-H ) :   0.9144 B(  6-C , 10-C ) :   0.9126
B( 10-C , 11-N ) :   2.7726 B( 12-C , 13-H ) :   0.9165 B( 12-C , 14-H ) :   0.9163
B( 12-C , 15-H ) :   0.9158 B( 12-C , 16-C ) :   0.9017 B( 16-C , 17-N ) :   2.8381

MP2 TOTAL ENERGY:     -397.459661429 Eh
FINAL SINGLE POINT ENERGY      -397.459661429198

DIPOLE MOMENT
-------------
                                X             Y             Z
Electronic contribution:      0.06921       0.22376       3.12682
Nuclear contribution   :     -0.12100      -0.32582      -4.64734
                        -----------------------------------------
Total Dipole Moment    :     -0.05179      -0.10207      -1.52052
                        -----------------------------------------
Magnitude (a.u.)       :      1.52482
Magnitude (Debye)      :      3.87579

Rotational constants in cm-1:     0.054819     0.008879     0.008452
Rotational constants in MHz :  1643.420236   266.196346   253.390229

                             ****ORCA TERMINATED NORMALLY****
TOTAL RUN TIME: 0 days 0 hours 2 minutes 43 seconds 23 msec
