                         Program Version 4.2.0 -  RELEASE  -
|  1> # 12mecn.remya.etal.2.mol6,8,10
|  2> ! MP2 def2-TZVP EnGrad TightSCF
|  3>
|  4> %pal
|  5>     nprocs 6
|  6> end
|  7>
|  8> %maxcore 8000
|  9>
| 10> %scf
| 11>     ConvForced true
| 12> end
| 13>
| 14> *xyz 0 1
| 15> C   5.300864000  -2.920090000   1.401103000
| 16> H   5.986071000  -2.139770000   1.737487000
| 17> H   5.636642000  -3.888750000   1.778233000
| 18> H   4.307359000  -2.697240000   1.799307000
| 19> C   5.234791000  -2.933140000  -0.043290000
| 20> N   5.170868000  -2.941760000  -1.207750000
| 21> C   1.912641000  -2.468050000  -1.750510000
| 22> H   2.876947000  -2.793500000  -2.151200000
| 23> H   1.688016000  -1.463720000  -2.122170000
| 24> H   1.123460000  -3.154780000  -2.069590000
| 25> C   1.977850000  -2.444240000  -0.306900000
| 26> N   2.036566000  -2.426130000   0.858249000
| 27> C   4.602033000   0.321019000  -1.784800000
| 28> H   4.827650000  -0.662160000  -2.207910000
| 29> H   5.320558000   1.057980000  -2.148500000
| 30> H   3.601982000   0.643751000  -2.087520000
| 31> C   4.654967000   0.244048000  -0.343060000
| 32> N   4.691648000   0.166590000   0.820757000
| 33> *
| 34>
| 35>                          ****END OF INPUT****

CARTESIAN COORDINATES (ANGSTROEM)
---------------------------------
  C      5.300864   -2.920090    1.401103
  H      5.986071   -2.139770    1.737487
  H      5.636642   -3.888750    1.778233
  H      4.307359   -2.697240    1.799307
  C      5.234791   -2.933140   -0.043290
  N      5.170868   -2.941760   -1.207750
  C      1.912641   -2.468050   -1.750510
  H      2.876947   -2.793500   -2.151200
  H      1.688016   -1.463720   -2.122170
  H      1.123460   -3.154780   -2.069590
  C      1.977850   -2.444240   -0.306900
  N      2.036566   -2.426130    0.858249
  C      4.602033    0.321019   -1.784800
  H      4.827650   -0.662160   -2.207910
  H      5.320558    1.057980   -2.148500
  H      3.601982    0.643751   -2.087520
  C      4.654967    0.244048   -0.343060
  N      4.691648    0.166590    0.820757

 Total Charge           Charge          ....    0
 Multiplicity           Mult            ....    1
 Number of Electrons    NEL             ....   66
 Basis Dimension        Dim             ....  333

ORBITAL ENERGIES
----------------

  NO   OCC          E(Eh)            E(eV)
   0   2.0000     -15.570200      -423.6867
   1   2.0000     -15.570181      -423.6862
   2   2.0000     -15.568806      -423.6488
   3   2.0000     -11.285362      -307.0903
   4   2.0000     -11.280126      -306.9478
   5   2.0000     -11.279867      -306.9408
   6   2.0000     -11.277158      -306.8671
   7   2.0000     -11.276719      -306.8551
   8   2.0000     -11.259806      -306.3949
   9   2.0000      -1.219538       -33.1853
  10   2.0000      -1.213320       -33.0161
  11   2.0000      -1.212527       -32.9945
  12   2.0000      -1.040583       -28.3157
  13   2.0000      -1.037560       -28.2334
  14   2.0000      -1.026072       -27.9208
  15   2.0000      -0.697860       -18.9897
  16   2.0000      -0.694158       -18.8890
  17   2.0000      -0.686213       -18.6728
  18   2.0000      -0.637696       -17.3526
  19   2.0000      -0.631068       -17.1722
  20   2.0000      -0.627461       -17.0741
  21   2.0000      -0.620181       -16.8760
  22   2.0000      -0.612003       -16.6535
  23   2.0000      -0.607459       -16.5298
  24   2.0000      -0.559996       -15.2383
  25   2.0000      -0.554479       -15.0881
  26   2.0000      -0.554050       -15.0765
  27   2.0000      -0.465649       -12.6710
  28   2.0000      -0.460173       -12.5219
  29   2.0000      -0.457890       -12.4598
  30   2.0000      -0.455596       -12.3974
  31   2.0000      -0.453010       -12.3270
  32   2.0000      -0.448836       -12.2135
  33   0.0000       0.112811         3.0697
  34   0.0000       0.150209         4.0874
  35   0.0000       0.154678         4.2090
  36   0.0000       0.158714         4.3188
  37   0.0000       0.166577         4.5328

MULLIKEN ATOMIC CHARGES
-----------------------
   0 C :   -0.270918
   1 H :    0.177426
   2 H :    0.166387
   3 H :    0.208115
   4 C :   -0.084552
   5 N :   -0.197803
   6 C :   -0.291298
   7 H :    0.203050
   8 H :    0.156825
   9 H :    0.176821
  10 C :   -0.113682
  11 N :   -0.131161
  12 C :   -0.293961
  13 H :    0.200220
  14 H :    0.177121
  15 H :    0.159492
  16 C :   -0.123326
  17 N :   -0.118757
Sum of atomic charges:   -0.0000000

LOEWDIN ATOMIC CHARGES
----------------------
   0 C :   -0.283249
   1 H :    0.154969
   2 H :    0.148316
   3 H :    0.160570
   4 C :   -0.199883
   5 N :    0.015257
   6 C :   -0.286724
   7 H :    0.155296
   8 H :    0.148471
   9 H :    0.152169
  10 C :   -0.212850
  11 N :    0.043574
  12 C :   -0.286474
  13 H :    0.154751
  14 H :    0.151598
  15 H :    0.149135
  16 C :   -0.214234
  17 N :    0.049310

  Mayer bond orders larger than 0.100000
B(  0-C ,  1-H ) :   0.9103 B(  0-C ,  2-H ) :   0.9082 B(  0-C ,  3-H ) :   0.8996
B(  0-C ,  4-C ) :   0.9112 B(  4-C ,  5-N ) :   2.7141 B(  6-C ,  7-H ) :   0.9065
B(  6-C ,  8-H ) :   0.9199 B(  6-C ,  9-H ) :   0.9105 B(  6-C , 10-C ) :   0.8969
B( 10-C , 11-N ) :   2.7659 B( 12-C , 13-H ) :   0.9060 B( 12-C , 14-H ) :   0.9102
B( 12-C , 15-H ) :   0.9224 B( 12-C , 16-C ) :   0.8958 B( 16-C , 17-N ) :   2.7842

MP2 TOTAL ENERGY:     -397.466730418 Eh
FINAL SINGLE POINT ENERGY      -397.466730417987

DIPOLE MOMENT
-------------
                                X             Y             Z
Electronic contribution:      0.15085      -0.19785       3.25764
Nuclear contribution   :     -0.19060       0.27264      -4.61055
                        -----------------------------------------
Total Dipole Moment    :     -0.03975       0.07480      -1.35292
                        -----------------------------------------
Magnitude (a.u.)       :      1.35557
Magnitude (Debye)      :      3.44558

Rotational constants in cm-1:     0.045971     0.038943     0.031438
Rotational constants in MHz :  1378.177055  1167.468747   942.491640

                             ****ORCA TERMINATED NORMALLY****
TOTAL RUN TIME: 0 days 0 hours 4 minutes 54 seconds 859 msec
