                         Program Version 4.2.0 -  RELEASE  -
|  1> # 12mecn.remya.etal.2.mol0,5,6
|  2> ! MP2 def2-TZVP EnGrad TightSCF
|  3>
|  4> %pal
|  5>     nprocs 6
|  6> end
|  7>
|  8> %maxcore 8000
|  9>
| 10> %scf
| 11>     ConvForced true
| 12> end
| 13>
| 14> *xyz 0 1
| 15> C  -0.869520000  -3.929380000   1.700199000
| 16> H  -0.057420000  -3.268850000   2.015352000
| 17> H  -0.697530000  -4.930670000   2.101524000
| 18> H  -1.821490000  -3.546590000   2.077146000
| 19> C  -0.916080000  -3.969960000   0.256749000
| 20> N  -0.955390000  -3.995980000  -0.909290000
| 21> C  -1.955700000   2.515080000   1.698463000
| 22> H  -2.923830000   2.883163000   2.049269000
| 23> H  -1.154850000   3.171830000   2.050990000
| 24> H  -1.790380000   1.506115000   2.087896000
| 25> C  -1.948230000   2.482156000   0.253672000
| 26> N  -1.937550000   2.462523000  -0.913150000
| 27> C   5.300864000  -2.920090000   1.401103000
| 28> H   5.986071000  -2.139770000   1.737487000
| 29> H   5.636642000  -3.888750000   1.778233000
| 30> H   4.307359000  -2.697240000   1.799307000
| 31> C   5.234791000  -2.933140000  -0.043290000
| 32> N   5.170868000  -2.941760000  -1.207750000
| 33> *
| 34>
| 35>                          ****END OF INPUT****

CARTESIAN COORDINATES (ANGSTROEM)
---------------------------------
  C     -0.869520   -3.929380    1.700199
  H     -0.057420   -3.268850    2.015352
  H     -0.697530   -4.930670    2.101524
  H     -1.821490   -3.546590    2.077146
  C     -0.916080   -3.969960    0.256749
  N     -0.955390   -3.995980   -0.909290
  C     -1.955700    2.515080    1.698463
  H     -2.923830    2.883163    2.049269
  H     -1.154850    3.171830    2.050990
  H     -1.790380    1.506115    2.087896
  C     -1.948230    2.482156    0.253672
  N     -1.937550    2.462523   -0.913150
  C      5.300864   -2.920090    1.401103
  H      5.986071   -2.139770    1.737487
  H      5.636642   -3.888750    1.778233
  H      4.307359   -2.697240    1.799307
  C      5.234791   -2.933140   -0.043290
  N      5.170868   -2.941760   -1.207750

 Total Charge           Charge          ....    0
 Multiplicity           Mult            ....    1
 Number of Electrons    NEL             ....   66
 Basis Dimension        Dim             ....  333

ORBITAL ENERGIES
----------------

  NO   OCC          E(Eh)            E(eV)
   0   2.0000     -15.573752      -423.7833
   1   2.0000     -15.573638      -423.7802
   2   2.0000     -15.573338      -423.7721
   3   2.0000     -11.289000      -307.1893
   4   2.0000     -11.288213      -307.1679
   5   2.0000     -11.287550      -307.1498
   6   2.0000     -11.280017      -306.9449
   7   2.0000     -11.279548      -306.9321
   8   2.0000     -11.279502      -306.9308
   9   2.0000      -1.214503       -33.0483
  10   2.0000      -1.214490       -33.0479
  11   2.0000      -1.214191       -33.0398
  12   2.0000      -1.047319       -28.4990
  13   2.0000      -1.046184       -28.4681
  14   2.0000      -1.045864       -28.4594
  15   2.0000      -0.703045       -19.1308
  16   2.0000      -0.702938       -19.1279
  17   2.0000      -0.701800       -19.0969
  18   2.0000      -0.636462       -17.3190
  19   2.0000      -0.635484       -17.2924
  20   2.0000      -0.635449       -17.2914
  21   2.0000      -0.635227       -17.2854
  22   2.0000      -0.633895       -17.2492
  23   2.0000      -0.632660       -17.2156
  24   2.0000      -0.555550       -15.1173
  25   2.0000      -0.555324       -15.1111
  26   2.0000      -0.555068       -15.1042
  27   2.0000      -0.457957       -12.4616
  28   2.0000      -0.457814       -12.4578
  29   2.0000      -0.457613       -12.4523
  30   2.0000      -0.457505       -12.4493
  31   2.0000      -0.457414       -12.4469
  32   2.0000      -0.457266       -12.4428
  33   0.0000       0.095325         2.5939
  34   0.0000       0.113540         3.0896
  35   0.0000       0.126597         3.4449
  36   0.0000       0.156760         4.2657
  37   0.0000       0.167664         4.5624

MULLIKEN ATOMIC CHARGES
-----------------------
   0 C :   -0.281477
   1 H :    0.164637
   2 H :    0.173050
   3 H :    0.171066
   4 C :   -0.144937
   5 N :   -0.082346
   6 C :   -0.278821
   7 H :    0.172937
   8 H :    0.172348
   9 H :    0.165192
  10 C :   -0.145961
  11 N :   -0.085693
  12 C :   -0.280366
  13 H :    0.172770
  14 H :    0.172747
  15 H :    0.164161
  16 C :   -0.145620
  17 N :   -0.083689
Sum of atomic charges:    0.0000000

LOEWDIN ATOMIC CHARGES
----------------------
   0 C :   -0.285842
   1 H :    0.149938
   2 H :    0.151377
   3 H :    0.152035
   4 C :   -0.221262
   5 N :    0.053752
   6 C :   -0.285190
   7 H :    0.152469
   8 H :    0.152448
   9 H :    0.150327
  10 C :   -0.220967
  11 N :    0.050915
  12 C :   -0.285185
  13 H :    0.151410
  14 H :    0.151070
  15 H :    0.150446
  16 C :   -0.219884
  17 N :    0.052144

  Mayer bond orders larger than 0.100000
B(  0-C ,  1-H ) :   0.9191 B(  0-C ,  2-H ) :   0.9170 B(  0-C ,  3-H ) :   0.9176
B(  0-C ,  4-C ) :   0.9008 B(  4-C ,  5-N ) :   2.8303 B(  6-C ,  7-H ) :   0.9166
B(  6-C ,  8-H ) :   0.9169 B(  6-C ,  9-H ) :   0.9184 B(  6-C , 10-C ) :   0.9014
B( 10-C , 11-N ) :   2.8324 B( 12-C , 13-H ) :   0.9172 B( 12-C , 14-H ) :   0.9166
B( 12-C , 15-H ) :   0.9189 B( 12-C , 16-C ) :   0.9029 B( 16-C , 17-N ) :   2.8323

MP2 TOTAL ENERGY:     -397.446827274 Eh
FINAL SINGLE POINT ENERGY      -397.446827273755

DIPOLE MOMENT
-------------
                                X             Y             Z
Electronic contribution:     -0.21585      -0.20429      -9.46664
Nuclear contribution   :      0.32600       0.28643      13.93106
                        -----------------------------------------
Total Dipole Moment    :      0.11015       0.08215       4.46442
                        -----------------------------------------
Magnitude (a.u.)       :      4.46654
Magnitude (Debye)      :     11.35303

Rotational constants in cm-1:     0.023259     0.009212     0.007537
Rotational constants in MHz :   697.294924   276.183217   225.950272

                             ****ORCA TERMINATED NORMALLY****
TOTAL RUN TIME: 0 days 0 hours 1 minutes 53 seconds 383 msec
