                         Program Version 4.2.0 -  RELEASE  -
|  1> # 12h2o.su.etal.mol0,1,2,3,5,7,8,10
|  2> ! MP2 def2-TZVP EnGrad TightSCF
|  3>
|  4> %pal
|  5>     nprocs 6
|  6> end
|  7>
|  8> %maxcore 8000
|  9>
| 10> %scf
| 11>     ConvForced true
| 12> end
| 13>
| 14> *xyz 0 1
| 15> O   1.794470000   0.923410000   2.768350000
| 16> H   2.338250000   1.359750000   3.430940000
| 17> H   0.879480000   1.303000000   2.865760000
| 18> O  -1.794470000  -0.923410000   2.768350000
| 19> H  -2.338250000  -1.359750000   3.430940000
| 20> H  -0.879480000  -1.303000000   2.865760000
| 21> O   0.923410000  -1.794470000  -2.768350000
| 22> H   1.359750000  -2.338250000  -3.430940000
| 23> H   1.303000000  -0.879480000  -2.865760000
| 24> O  -1.752130000  -0.741530000  -2.896280000
| 25> H  -2.036450000  -0.920500000  -1.984040000
| 26> H  -0.921210000  -1.242140000  -2.984230000
| 27> O   0.885520000  -1.737840000   0.052730000
| 28> H   1.284090000  -0.839590000   0.017130000
| 29> H   1.032320000  -2.090180000  -0.841890000
| 30> O  -1.737840000  -0.885520000  -0.052730000
| 31> H  -2.090180000  -1.032320000   0.841890000
| 32> H  -0.839590000  -1.284090000  -0.017130000
| 33> O   1.752130000   0.741530000  -2.896280000
| 34> H   2.036450000   0.920500000  -1.984040000
| 35> H   0.921210000   1.242140000  -2.984230000
| 36> O  -0.923410000   1.794470000  -2.768350000
| 37> H  -1.359750000   2.338250000  -3.430940000
| 38> H  -1.303000000   0.879480000  -2.865760000
| 39> *
| 40>
| 41>                          ****END OF INPUT****

CARTESIAN COORDINATES (ANGSTROEM)
---------------------------------
  O      1.794470    0.923410    2.768350
  H      2.338250    1.359750    3.430940
  H      0.879480    1.303000    2.865760
  O     -1.794470   -0.923410    2.768350
  H     -2.338250   -1.359750    3.430940
  H     -0.879480   -1.303000    2.865760
  O      0.923410   -1.794470   -2.768350
  H      1.359750   -2.338250   -3.430940
  H      1.303000   -0.879480   -2.865760
  O     -1.752130   -0.741530   -2.896280
  H     -2.036450   -0.920500   -1.984040
  H     -0.921210   -1.242140   -2.984230
  O      0.885520   -1.737840    0.052730
  H      1.284090   -0.839590    0.017130
  H      1.032320   -2.090180   -0.841890
  O     -1.737840   -0.885520   -0.052730
  H     -2.090180   -1.032320    0.841890
  H     -0.839590   -1.284090   -0.017130
  O      1.752130    0.741530   -2.896280
  H      2.036450    0.920500   -1.984040
  H      0.921210    1.242140   -2.984230
  O     -0.923410    1.794470   -2.768350
  H     -1.359750    2.338250   -3.430940
  H     -1.303000    0.879480   -2.865760

 Total Charge           Charge          ....    0
 Multiplicity           Mult            ....    1
 Number of Electrons    NEL             ....   80
 Basis Dimension        Dim             ....  344

ORBITAL ENERGIES
----------------

  NO   OCC          E(Eh)            E(eV)
   0   2.0000     -20.582030      -560.0655
   1   2.0000     -20.574198      -559.8524
   2   2.0000     -20.571677      -559.7838
   3   2.0000     -20.567875      -559.6803
   4   2.0000     -20.562345      -559.5298
   5   2.0000     -20.531215      -558.6828
   6   2.0000     -20.530324      -558.6585
   7   2.0000     -20.512673      -558.1782
   8   2.0000      -1.370194       -37.2849
   9   2.0000      -1.359978       -37.0069
  10   2.0000      -1.352211       -36.7955
  11   2.0000      -1.346956       -36.6525
  12   2.0000      -1.342838       -36.5405
  13   2.0000      -1.328622       -36.1536
  14   2.0000      -1.308615       -35.6092
  15   2.0000      -1.296666       -35.2841
  16   2.0000      -0.733738       -19.9660
  17   2.0000      -0.726825       -19.7779
  18   2.0000      -0.724733       -19.7210
  19   2.0000      -0.715074       -19.4582
  20   2.0000      -0.709005       -19.2930
  21   2.0000      -0.693601       -18.8739
  22   2.0000      -0.690875       -18.7997
  23   2.0000      -0.676704       -18.4141
  24   2.0000      -0.627908       -17.0863
  25   2.0000      -0.603296       -16.4165
  26   2.0000      -0.593449       -16.1486
  27   2.0000      -0.583890       -15.8884
  28   2.0000      -0.582000       -15.8370
  29   2.0000      -0.578118       -15.7314
  30   2.0000      -0.557817       -15.1790
  31   2.0000      -0.538067       -14.6415
  32   2.0000      -0.518263       -14.1026
  33   2.0000      -0.515400       -14.0247
  34   2.0000      -0.514621       -14.0036
  35   2.0000      -0.512417       -13.9436
  36   2.0000      -0.496557       -13.5120
  37   2.0000      -0.482322       -13.1246
  38   2.0000      -0.476650       -12.9703
  39   2.0000      -0.464027       -12.6268
  40   0.0000       0.097588         2.6555
  41   0.0000       0.120037         3.2664
  42   0.0000       0.135676         3.6919
  43   0.0000       0.153712         4.1827
  44   0.0000       0.165833         4.5125

MULLIKEN ATOMIC CHARGES
-----------------------
   0 O :   -0.693832
   1 H :    0.342133
   2 H :    0.353924
   3 O :   -0.700538
   4 H :    0.347281
   5 H :    0.364985
   6 O :   -0.756212
   7 H :    0.351911
   8 H :    0.381039
   9 O :   -0.728726
  10 H :    0.389744
  11 H :    0.360888
  12 O :   -0.697846
  13 H :    0.341917
  14 H :    0.378907
  15 O :   -0.746801
  16 H :    0.364331
  17 H :    0.345195
  18 O :   -0.706664
  19 H :    0.347502
  20 H :    0.383829
  21 O :   -0.744587
  22 H :    0.335468
  23 H :    0.386151
Sum of atomic charges:   -0.0000000

LOEWDIN ATOMIC CHARGES
----------------------
   0 O :   -0.342154
   1 H :    0.159765
   2 H :    0.184428
   3 O :   -0.312667
   4 H :    0.161336
   5 H :    0.188071
   6 O :   -0.315186
   7 H :    0.159670
   8 H :    0.145552
   9 O :   -0.291585
  10 H :    0.158337
  11 H :    0.146083
  12 O :   -0.299197
  13 H :    0.169705
  14 H :    0.152068
  15 O :   -0.350422
  16 H :    0.147831
  17 H :    0.138364
  18 O :   -0.281415
  19 H :    0.166770
  20 H :    0.156912
  21 O :   -0.341747
  22 H :    0.153033
  23 H :    0.146448

  Mayer bond orders larger than 0.100000
B(  0-O ,  1-H ) :   0.8507 B(  0-O ,  2-H ) :   0.8361 B(  3-O ,  4-H ) :   0.8443
B(  3-O ,  5-H ) :   0.8254 B(  6-O ,  7-H ) :   0.8399 B(  6-O ,  8-H ) :   0.7336
B(  8-H , 18-O ) :   0.1140 B(  9-O , 10-H ) :   0.7907 B(  9-O , 11-H ) :   0.8091
B(  9-O , 23-H ) :   0.1182 B( 12-O , 13-H ) :   0.8406 B( 12-O , 14-H ) :   0.7989
B( 15-O , 16-H ) :   0.8200 B( 15-O , 17-H ) :   0.7845 B( 18-O , 19-H ) :   0.8434
B( 18-O , 20-H ) :   0.7695 B( 21-O , 22-H ) :   0.8511 B( 21-O , 23-H ) :   0.7370

MP2 TOTAL ENERGY:     -610.585432342 Eh
FINAL SINGLE POINT ENERGY      -610.585432342469

DIPOLE MOMENT
-------------
                                X             Y             Z
Electronic contribution:     -0.01088      -0.05145      -0.00659
Nuclear contribution   :      0.90834       0.00045       1.37221
                        -----------------------------------------
Total Dipole Moment    :      0.89746      -0.05100       1.36563
                        -----------------------------------------
Magnitude (a.u.)       :      1.63492
Magnitude (Debye)      :      4.15564

Rotational constants in cm-1:     0.030705     0.016783     0.014832
Rotational constants in MHz :   920.521884   503.150285   444.641895

                             ****ORCA TERMINATED NORMALLY****
TOTAL RUN TIME: 0 days 0 hours 2 minutes 54 seconds 813 msec
