                         Program Version 4.2.0 -  RELEASE  -
|  1> # 12meoh.boyd.etal.mol0,6,11
|  2> ! MP2 def2-TZVP EnGrad TightSCF
|  3>
|  4> %pal
|  5>     nprocs 6
|  6> end
|  7>
|  8> %maxcore 8000
|  9>
| 10> %scf
| 11>     ConvForced true
| 12> end
| 13>
| 14> *xyz 0 1
| 15> O  -1.776108874  -2.741384797  -1.019308298
| 16> H  -2.520094035  -2.452295987  -0.420778302
| 17> C  -2.174025166  -3.952700964  -1.647004581
| 18> H  -1.359803895  -4.272673416  -2.304149236
| 19> H  -3.075973971  -3.808692420  -2.256751112
| 20> H  -2.370225393  -4.752784761  -0.918966137
| 21> O   2.622209273  -1.703002590  -1.445859723
| 22> H   1.828551432  -1.986513781  -0.909754968
| 23> C   2.781117675  -2.615822239  -2.525472890
| 24> H   3.691063626  -2.339003544  -3.065143454
| 25> H   1.934727323  -2.559520367  -3.223226661
| 26> H   2.879948338  -3.653846211  -2.177750170
| 27> O   3.252955559   0.588596242   1.858934315
| 28> H   3.621209177  -0.251605199   1.476063364
| 29> C   4.040824528   0.944288422   2.989639460
| 30> H   3.670521436   1.902573549   3.363847391
| 31> H   5.103749934   1.055868619   2.734277559
| 32> H   3.948540682   0.200279590   3.792908518
| 33> *
| 34>
| 35>                          ****END OF INPUT****

CARTESIAN COORDINATES (ANGSTROEM)
---------------------------------
  O     -1.776109   -2.741385   -1.019308
  H     -2.520094   -2.452296   -0.420778
  C     -2.174025   -3.952701   -1.647005
  H     -1.359804   -4.272673   -2.304149
  H     -3.075974   -3.808692   -2.256751
  H     -2.370225   -4.752785   -0.918966
  O      2.622209   -1.703003   -1.445860
  H      1.828551   -1.986514   -0.909755
  C      2.781118   -2.615822   -2.525473
  H      3.691064   -2.339004   -3.065143
  H      1.934727   -2.559520   -3.223227
  H      2.879948   -3.653846   -2.177750
  O      3.252956    0.588596    1.858934
  H      3.621209   -0.251605    1.476063
  C      4.040825    0.944288    2.989639
  H      3.670521    1.902574    3.363847
  H      5.103750    1.055869    2.734278
  H      3.948541    0.200280    3.792909

 Total Charge           Charge          ....    0
 Multiplicity           Mult            ....    1
 Number of Electrons    NEL             ....   54
 Basis Dimension        Dim             ....  258

ORBITAL ENERGIES
----------------

  NO   OCC          E(Eh)            E(eV)
   0   2.0000     -20.564572      -559.5904
   1   2.0000     -20.550279      -559.2015
   2   2.0000     -20.545858      -559.0812
   3   2.0000     -11.277278      -306.8703
   4   2.0000     -11.265768      -306.5571
   5   2.0000     -11.263283      -306.4895
   6   2.0000      -1.353590       -36.8330
   7   2.0000      -1.338437       -36.4207
   8   2.0000      -1.335412       -36.3384
   9   2.0000      -0.924979       -25.1700
  10   2.0000      -0.913166       -24.8485
  11   2.0000      -0.910749       -24.7827
  12   2.0000      -0.687982       -18.7209
  13   2.0000      -0.673758       -18.3339
  14   2.0000      -0.671190       -18.2640
  15   2.0000      -0.623224       -16.9588
  16   2.0000      -0.610509       -16.6128
  17   2.0000      -0.607805       -16.5392
  18   2.0000      -0.597575       -16.2608
  19   2.0000      -0.584805       -15.9134
  20   2.0000      -0.580699       -15.8016
  21   2.0000      -0.506784       -13.7903
  22   2.0000      -0.493365       -13.4252
  23   2.0000      -0.490324       -13.3424
  24   2.0000      -0.455153       -12.3854
  25   2.0000      -0.442070       -12.0293
  26   2.0000      -0.438843       -11.9415
  27   0.0000       0.118672         3.2292
  28   0.0000       0.141638         3.8542
  29   0.0000       0.152479         4.1492
  30   0.0000       0.165155         4.4941
  31   0.0000       0.180211         4.9038

MULLIKEN ATOMIC CHARGES
-----------------------
   0 O :   -0.499255
   1 H :    0.325402
   2 C :   -0.175331
   3 H :    0.126556
   4 H :    0.113088
   5 H :    0.111352
   6 O :   -0.504226
   7 H :    0.332440
   8 C :   -0.170979
   9 H :    0.126962
  10 H :    0.112033
  11 H :    0.105011
  12 O :   -0.497393
  13 H :    0.327286
  14 C :   -0.173518
  15 H :    0.126216
  16 H :    0.109145
  17 H :    0.105209
Sum of atomic charges:   -0.0000000

LOEWDIN ATOMIC CHARGES
----------------------
   0 O :   -0.110813
   1 H :    0.194621
   2 C :   -0.384298
   3 H :    0.109234
   4 H :    0.096619
   5 H :    0.095784
   6 O :   -0.112563
   7 H :    0.196627
   8 C :   -0.382548
   9 H :    0.109081
  10 H :    0.096390
  11 H :    0.094130
  12 O :   -0.107863
  13 H :    0.191697
  14 C :   -0.383811
  15 H :    0.108995
  16 H :    0.095043
  17 H :    0.093675

  Mayer bond orders larger than 0.100000
B(  0-O ,  1-H ) :   0.8394 B(  0-O ,  2-C ) :   0.9242 B(  2-C ,  3-H ) :   0.9377
B(  2-C ,  4-H ) :   0.9396 B(  2-C ,  5-H ) :   0.9380 B(  6-O ,  7-H ) :   0.8332
B(  6-O ,  8-C ) :   0.9274 B(  8-C ,  9-H ) :   0.9383 B(  8-C , 10-H ) :   0.9383
B(  8-C , 11-H ) :   0.9390 B( 12-O , 13-H ) :   0.8356 B( 12-O , 14-C ) :   0.9348
B( 14-C , 15-H ) :   0.9380 B( 14-C , 16-H ) :   0.9392 B( 14-C , 17-H ) :   0.9388

MP2 TOTAL ENERGY:     -346.522762511 Eh
FINAL SINGLE POINT ENERGY      -346.522762510895

DIPOLE MOMENT
-------------
                                X             Y             Z
Electronic contribution:     -0.57740       2.40851       0.58632
Nuclear contribution   :      0.00845      -3.64587      -0.40246
                        -----------------------------------------
Total Dipole Moment    :     -0.56895      -1.23736       0.18386
                        -----------------------------------------
Magnitude (a.u.)       :      1.37425
Magnitude (Debye)      :      3.49308

Rotational constants in cm-1:     0.066989     0.016069     0.013168
Rotational constants in MHz :  2008.293816   481.744524   394.763366

                             ****ORCA TERMINATED NORMALLY****
TOTAL RUN TIME: 0 days 0 hours 0 minutes 51 seconds 30 msec
