                         Program Version 4.2.0 -  RELEASE  -
|  1> # 12h2o.su.etal.mol0,1,2,3,6,8,10
|  2> ! MP2 def2-TZVP EnGrad TightSCF
|  3>
|  4> %pal
|  5>     nprocs 6
|  6> end
|  7>
|  8> %maxcore 8000
|  9>
| 10> %scf
| 11>     ConvForced true
| 12> end
| 13>
| 14> *xyz 0 1
| 15> O   1.794470000   0.923410000   2.768350000
| 16> H   2.338250000   1.359750000   3.430940000
| 17> H   0.879480000   1.303000000   2.865760000
| 18> O  -1.794470000  -0.923410000   2.768350000
| 19> H  -2.338250000  -1.359750000   3.430940000
| 20> H  -0.879480000  -1.303000000   2.865760000
| 21> O   0.923410000  -1.794470000  -2.768350000
| 22> H   1.359750000  -2.338250000  -3.430940000
| 23> H   1.303000000  -0.879480000  -2.865760000
| 24> O  -1.752130000  -0.741530000  -2.896280000
| 25> H  -2.036450000  -0.920500000  -1.984040000
| 26> H  -0.921210000  -1.242140000  -2.984230000
| 27> O   1.737840000   0.885520000  -0.052730000
| 28> H   2.090180000   1.032320000   0.841890000
| 29> H   0.839590000   1.284090000  -0.017130000
| 30> O   1.752130000   0.741530000  -2.896280000
| 31> H   2.036450000   0.920500000  -1.984040000
| 32> H   0.921210000   1.242140000  -2.984230000
| 33> O  -0.923410000   1.794470000  -2.768350000
| 34> H  -1.359750000   2.338250000  -3.430940000
| 35> H  -1.303000000   0.879480000  -2.865760000
| 36> *
| 37>
| 38>                          ****END OF INPUT****

CARTESIAN COORDINATES (ANGSTROEM)
---------------------------------
  O      1.794470    0.923410    2.768350
  H      2.338250    1.359750    3.430940
  H      0.879480    1.303000    2.865760
  O     -1.794470   -0.923410    2.768350
  H     -2.338250   -1.359750    3.430940
  H     -0.879480   -1.303000    2.865760
  O      0.923410   -1.794470   -2.768350
  H      1.359750   -2.338250   -3.430940
  H      1.303000   -0.879480   -2.865760
  O     -1.752130   -0.741530   -2.896280
  H     -2.036450   -0.920500   -1.984040
  H     -0.921210   -1.242140   -2.984230
  O      1.737840    0.885520   -0.052730
  H      2.090180    1.032320    0.841890
  H      0.839590    1.284090   -0.017130
  O      1.752130    0.741530   -2.896280
  H      2.036450    0.920500   -1.984040
  H      0.921210    1.242140   -2.984230
  O     -0.923410    1.794470   -2.768350
  H     -1.359750    2.338250   -3.430940
  H     -1.303000    0.879480   -2.865760

 Total Charge           Charge          ....    0
 Multiplicity           Mult            ....    1
 Number of Electrons    NEL             ....   70
 Basis Dimension        Dim             ....  301

ORBITAL ENERGIES
----------------

  NO   OCC          E(Eh)            E(eV)
   0   2.0000     -20.597803      -560.4947
   1   2.0000     -20.571336      -559.7745
   2   2.0000     -20.556842      -559.3801
   3   2.0000     -20.550320      -559.2026
   4   2.0000     -20.537673      -558.8585
   5   2.0000     -20.527957      -558.5941
   6   2.0000     -20.526398      -558.5517
   7   2.0000      -1.375732       -37.4356
   8   2.0000      -1.349496       -36.7217
   9   2.0000      -1.346639       -36.6439
  10   2.0000      -1.333684       -36.2914
  11   2.0000      -1.323871       -36.0244
  12   2.0000      -1.318677       -35.8830
  13   2.0000      -1.302688       -35.4480
  14   2.0000      -0.742528       -20.2052
  15   2.0000      -0.714813       -19.4511
  16   2.0000      -0.708786       -19.2870
  17   2.0000      -0.705132       -19.1876
  18   2.0000      -0.702178       -19.1072
  19   2.0000      -0.688458       -18.7339
  20   2.0000      -0.681493       -18.5444
  21   2.0000      -0.615151       -16.7391
  22   2.0000      -0.605238       -16.4694
  23   2.0000      -0.583614       -15.8809
  24   2.0000      -0.582929       -15.8623
  25   2.0000      -0.566024       -15.4023
  26   2.0000      -0.562886       -15.3169
  27   2.0000      -0.539155       -14.6712
  28   2.0000      -0.528159       -14.3719
  29   2.0000      -0.514700       -14.0057
  30   2.0000      -0.497776       -13.5452
  31   2.0000      -0.496884       -13.5209
  32   2.0000      -0.486748       -13.2451
  33   2.0000      -0.477056       -12.9814
  34   2.0000      -0.473122       -12.8743
  35   0.0000       0.092521         2.5176
  36   0.0000       0.129918         3.5352
  37   0.0000       0.135360         3.6833
  38   0.0000       0.169150         4.6028
  39   0.0000       0.172672         4.6986

MULLIKEN ATOMIC CHARGES
-----------------------
   0 O :   -0.698468
   1 H :    0.353172
   2 H :    0.358633
   3 O :   -0.691997
   4 H :    0.341738
   5 H :    0.351066
   6 O :   -0.743509
   7 H :    0.333628
   8 H :    0.384724
   9 O :   -0.711569
  10 H :    0.354041
  11 H :    0.378383
  12 O :   -0.712762
  13 H :    0.372637
  14 H :    0.338664
  15 O :   -0.729197
  16 H :    0.384474
  17 H :    0.363310
  18 O :   -0.744348
  19 H :    0.338378
  20 H :    0.379000
Sum of atomic charges:    0.0000000

LOEWDIN ATOMIC CHARGES
----------------------
   0 O :   -0.311193
   1 H :    0.164156
   2 H :    0.186317
   3 O :   -0.342161
   4 H :    0.159431
   5 H :    0.183148
   6 O :   -0.342092
   7 H :    0.152043
   8 H :    0.146176
   9 O :   -0.286231
  10 H :    0.171139
  11 H :    0.154623
  12 O :   -0.326165
  13 H :    0.152891
  14 H :    0.170221
  15 O :   -0.292198
  16 H :    0.156426
  17 H :    0.147824
  18 O :   -0.343659
  19 H :    0.154300
  20 H :    0.145003

  Mayer bond orders larger than 0.100000
B(  0-O ,  1-H ) :   0.8410 B(  0-O ,  2-H ) :   0.8295 B(  3-O ,  4-H ) :   0.8512
B(  3-O ,  5-H ) :   0.8383 B(  6-O ,  7-H ) :   0.8522 B(  6-O ,  8-H ) :   0.7391
B(  8-H , 15-O ) :   0.1175 B(  9-O , 10-H ) :   0.8400 B(  9-O , 11-H ) :   0.7775
B(  9-O , 20-H ) :   0.1101 B( 12-O , 13-H ) :   0.8104 B( 12-O , 14-H ) :   0.8436
B( 15-O , 16-H ) :   0.8021 B( 15-O , 17-H ) :   0.7974 B( 18-O , 19-H ) :   0.8501
B( 18-O , 20-H ) :   0.7486

MP2 TOTAL ENERGY:     -534.253593060 Eh
FINAL SINGLE POINT ENERGY      -534.253593059600

DIPOLE MOMENT
-------------
                                X             Y             Z
Electronic contribution:      0.15004      -0.09265       0.07569
Nuclear contribution   :     -0.45439       0.45394       2.14649
                        -----------------------------------------
Total Dipole Moment    :     -0.30435       0.36129       2.22218
                        -----------------------------------------
Magnitude (a.u.)       :      2.27183
Magnitude (Debye)      :      5.77454

Rotational constants in cm-1:     0.034542     0.018005     0.015047
Rotational constants in MHz :  1035.550689   539.767820   451.102303

                             ****ORCA TERMINATED NORMALLY****
TOTAL RUN TIME: 0 days 0 hours 1 minutes 40 seconds 35 msec
