                         Program Version 4.2.0 -  RELEASE  -
|  1> # 12mecn.remya.etal.2.mol6,7,9
|  2> ! MP2 def2-TZVP EnGrad TightSCF
|  3>
|  4> %pal
|  5>     nprocs 6
|  6> end
|  7>
|  8> %maxcore 8000
|  9>
| 10> %scf
| 11>     ConvForced true
| 12> end
| 13>
| 14> *xyz 0 1
| 15> C   5.300864000  -2.920090000   1.401103000
| 16> H   5.986071000  -2.139770000   1.737487000
| 17> H   5.636642000  -3.888750000   1.778233000
| 18> H   4.307359000  -2.697240000   1.799307000
| 19> C   5.234791000  -2.933140000  -0.043290000
| 20> N   5.170868000  -2.941760000  -1.207750000
| 21> C   1.502241000   0.651296000   1.710523000
| 22> H   1.309219000   1.637164000   2.143202000
| 23> H   2.493408000   0.297996000   2.009069000
| 24> H   0.746597000  -0.059850000   2.055508000
| 25> C   1.447974000   0.738517000   0.269805000
| 26> N   1.405612000   0.808047000  -0.894380000
| 27> C   0.923766000   4.000693000  -1.575910000
| 28> H   0.011949000   4.478423000  -1.939550000
| 29> H   0.947903000   2.966558000  -1.929960000
| 30> H   1.805950000   4.519548000  -1.956520000
| 31> C   0.942834000   3.994846000  -0.131200000
| 32> N   0.960035000   3.982544000   1.035639000
| 33> *
| 34>
| 35>                          ****END OF INPUT****

CARTESIAN COORDINATES (ANGSTROEM)
---------------------------------
  C      5.300864   -2.920090    1.401103
  H      5.986071   -2.139770    1.737487
  H      5.636642   -3.888750    1.778233
  H      4.307359   -2.697240    1.799307
  C      5.234791   -2.933140   -0.043290
  N      5.170868   -2.941760   -1.207750
  C      1.502241    0.651296    1.710523
  H      1.309219    1.637164    2.143202
  H      2.493408    0.297996    2.009069
  H      0.746597   -0.059850    2.055508
  C      1.447974    0.738517    0.269805
  N      1.405612    0.808047   -0.894380
  C      0.923766    4.000693   -1.575910
  H      0.011949    4.478423   -1.939550
  H      0.947903    2.966558   -1.929960
  H      1.805950    4.519548   -1.956520
  C      0.942834    3.994846   -0.131200
  N      0.960035    3.982544    1.035639

 Total Charge           Charge          ....    0
 Multiplicity           Mult            ....    1
 Number of Electrons    NEL             ....   66
 Basis Dimension        Dim             ....  333

ORBITAL ENERGIES
----------------

  NO   OCC          E(Eh)            E(eV)
   0   2.0000     -15.573780      -423.7841
   1   2.0000     -15.572149      -423.7397
   2   2.0000     -15.569474      -423.6669
   3   2.0000     -11.287643      -307.1524
   4   2.0000     -11.283576      -307.0417
   5   2.0000     -11.281478      -306.9846
   6   2.0000     -11.280104      -306.9472
   7   2.0000     -11.277359      -306.8725
   8   2.0000     -11.268765      -306.6387
   9   2.0000      -1.217801       -33.1380
  10   2.0000      -1.214980       -33.0613
  11   2.0000      -1.212824       -33.0026
  12   2.0000      -1.046083       -28.4654
  13   2.0000      -1.039888       -28.2968
  14   2.0000      -1.032896       -28.1065
  15   2.0000      -0.703252       -19.1365
  16   2.0000      -0.696234       -18.9455
  17   2.0000      -0.690228       -18.7820
  18   2.0000      -0.635552       -17.2943
  19   2.0000      -0.632977       -17.2242
  20   2.0000      -0.631751       -17.1908
  21   2.0000      -0.627390       -17.0721
  22   2.0000      -0.622110       -16.9285
  23   2.0000      -0.614892       -16.7321
  24   2.0000      -0.558515       -15.1980
  25   2.0000      -0.555956       -15.1283
  26   2.0000      -0.555271       -15.1097
  27   2.0000      -0.460821       -12.5396
  28   2.0000      -0.460023       -12.5179
  29   2.0000      -0.458309       -12.4712
  30   2.0000      -0.457825       -12.4580
  31   2.0000      -0.455827       -12.4037
  32   2.0000      -0.453287       -12.3346
  33   0.0000       0.096941         2.6379
  34   0.0000       0.134618         3.6631
  35   0.0000       0.145247         3.9524
  36   0.0000       0.166225         4.5232
  37   0.0000       0.168826         4.5940

MULLIKEN ATOMIC CHARGES
-----------------------
   0 C :   -0.284564
   1 H :    0.173185
   2 H :    0.175247
   3 H :    0.165239
   4 C :   -0.143681
   5 N :   -0.085479
   6 C :   -0.288111
   7 H :    0.208058
   8 H :    0.156665
   9 H :    0.167932
  10 C :   -0.093684
  11 N :   -0.149075
  12 C :   -0.284360
  13 H :    0.165520
  14 H :    0.207902
  15 H :    0.165781
  16 C :   -0.107065
  17 N :   -0.149510
Sum of atomic charges:    0.0000000

LOEWDIN ATOMIC CHARGES
----------------------
   0 C :   -0.285112
   1 H :    0.151360
   2 H :    0.151791
   3 H :    0.150290
   4 C :   -0.219647
   5 N :    0.051277
   6 C :   -0.282368
   7 H :    0.157729
   8 H :    0.148995
   9 H :    0.151840
  10 C :   -0.207877
  11 N :    0.035738
  12 C :   -0.282472
  13 H :    0.150152
  14 H :    0.157758
  15 H :    0.151851
  16 C :   -0.208582
  17 N :    0.027278

  Mayer bond orders larger than 0.100000
B(  0-C ,  1-H ) :   0.9176 B(  0-C ,  2-H ) :   0.9158 B(  0-C ,  3-H ) :   0.9191
B(  0-C ,  4-C ) :   0.9015 B(  4-C ,  5-N ) :   2.8322 B(  6-C ,  7-H ) :   0.9020
B(  6-C ,  8-H ) :   0.9185 B(  6-C ,  9-H ) :   0.9169 B(  6-C , 10-C ) :   0.8983
B( 10-C , 11-N ) :   2.7577 B( 12-C , 13-H ) :   0.9158 B( 12-C , 14-H ) :   0.9004
B( 12-C , 15-H ) :   0.9144 B( 12-C , 16-C ) :   0.9025 B( 16-C , 17-N ) :   2.7823

MP2 TOTAL ENERGY:     -397.458298741 Eh
FINAL SINGLE POINT ENERGY      -397.458298741210

DIPOLE MOMENT
-------------
                                X             Y             Z
Electronic contribution:     -0.21406       0.14636      -3.18074
Nuclear contribution   :      0.32170      -0.23916       4.62470
                        -----------------------------------------
Total Dipole Moment    :      0.10764      -0.09279       1.44396
                        -----------------------------------------
Magnitude (a.u.)       :      1.45093
Magnitude (Debye)      :      3.68798

Rotational constants in cm-1:     0.078155     0.011649     0.010742
Rotational constants in MHz :  2343.020031   349.228837   322.048585

                             ****ORCA TERMINATED NORMALLY****
TOTAL RUN TIME: 0 days 0 hours 5 minutes 0 seconds 377 msec
