                         Program Version 4.2.0 -  RELEASE  -
|  1> # 12h2o.su.etal.mol1,2,4,5,7,8,11
|  2> ! MP2 def2-TZVP EnGrad TightSCF
|  3>
|  4> %pal
|  5>     nprocs 6
|  6> end
|  7>
|  8> %maxcore 8000
|  9>
| 10> %scf
| 11>     ConvForced true
| 12> end
| 13>
| 14> *xyz 0 1
| 15> O  -1.794470000  -0.923410000   2.768350000
| 16> H  -2.338250000  -1.359750000   3.430940000
| 17> H  -0.879480000  -1.303000000   2.865760000
| 18> O   0.923410000  -1.794470000  -2.768350000
| 19> H   1.359750000  -2.338250000  -3.430940000
| 20> H   1.303000000  -0.879480000  -2.865760000
| 21> O  -0.885520000   1.737840000   0.052730000
| 22> H  -1.032320000   2.090180000  -0.841890000
| 23> H  -1.284090000   0.839590000   0.017130000
| 24> O   0.885520000  -1.737840000   0.052730000
| 25> H   1.284090000  -0.839590000   0.017130000
| 26> H   1.032320000  -2.090180000  -0.841890000
| 27> O  -1.737840000  -0.885520000  -0.052730000
| 28> H  -2.090180000  -1.032320000   0.841890000
| 29> H  -0.839590000  -1.284090000  -0.017130000
| 30> O   1.752130000   0.741530000  -2.896280000
| 31> H   2.036450000   0.920500000  -1.984040000
| 32> H   0.921210000   1.242140000  -2.984230000
| 33> O  -0.741530000   1.752130000   2.896280000
| 34> H  -0.920500000   2.036450000   1.984040000
| 35> H  -1.242140000   0.921210000   2.984230000
| 36> *
| 37>
| 38>                          ****END OF INPUT****

CARTESIAN COORDINATES (ANGSTROEM)
---------------------------------
  O     -1.794470   -0.923410    2.768350
  H     -2.338250   -1.359750    3.430940
  H     -0.879480   -1.303000    2.865760
  O      0.923410   -1.794470   -2.768350
  H      1.359750   -2.338250   -3.430940
  H      1.303000   -0.879480   -2.865760
  O     -0.885520    1.737840    0.052730
  H     -1.032320    2.090180   -0.841890
  H     -1.284090    0.839590    0.017130
  O      0.885520   -1.737840    0.052730
  H      1.284090   -0.839590    0.017130
  H      1.032320   -2.090180   -0.841890
  O     -1.737840   -0.885520   -0.052730
  H     -2.090180   -1.032320    0.841890
  H     -0.839590   -1.284090   -0.017130
  O      1.752130    0.741530   -2.896280
  H      2.036450    0.920500   -1.984040
  H      0.921210    1.242140   -2.984230
  O     -0.741530    1.752130    2.896280
  H     -0.920500    2.036450    1.984040
  H     -1.242140    0.921210    2.984230

 Total Charge           Charge          ....    0
 Multiplicity           Mult            ....    1
 Number of Electrons    NEL             ....   70
 Basis Dimension        Dim             ....  301

ORBITAL ENERGIES
----------------

  NO   OCC          E(Eh)            E(eV)
   0   2.0000     -20.616901      -561.0144
   1   2.0000     -20.602479      -560.6220
   2   2.0000     -20.571853      -559.7886
   3   2.0000     -20.557753      -559.4049
   4   2.0000     -20.547773      -559.1333
   5   2.0000     -20.534565      -558.7739
   6   2.0000     -20.500938      -557.8589
   7   2.0000      -1.402418       -38.1617
   8   2.0000      -1.382900       -37.6306
   9   2.0000      -1.358791       -36.9746
  10   2.0000      -1.339840       -36.4589
  11   2.0000      -1.335847       -36.3503
  12   2.0000      -1.317023       -35.8380
  13   2.0000      -1.286069       -34.9957
  14   2.0000      -0.759500       -20.6670
  15   2.0000      -0.748297       -20.3622
  16   2.0000      -0.728091       -19.8124
  17   2.0000      -0.717717       -19.5301
  18   2.0000      -0.701577       -19.0909
  19   2.0000      -0.698035       -18.9945
  20   2.0000      -0.665500       -18.1092
  21   2.0000      -0.642144       -17.4736
  22   2.0000      -0.626697       -17.0533
  23   2.0000      -0.606028       -16.4909
  24   2.0000      -0.586256       -15.9528
  25   2.0000      -0.583551       -15.8792
  26   2.0000      -0.571775       -15.5588
  27   2.0000      -0.543544       -14.7906
  28   2.0000      -0.537037       -14.6135
  29   2.0000      -0.516829       -14.0636
  30   2.0000      -0.508867       -13.8470
  31   2.0000      -0.506788       -13.7904
  32   2.0000      -0.496765       -13.5177
  33   2.0000      -0.481247       -13.0954
  34   2.0000      -0.450856       -12.2684
  35   0.0000       0.078914         2.1474
  36   0.0000       0.111607         3.0370
  37   0.0000       0.134285         3.6541
  38   0.0000       0.150525         4.0960
  39   0.0000       0.176021         4.7898

MULLIKEN ATOMIC CHARGES
-----------------------
   0 O :   -0.715116
   1 H :    0.361385
   2 H :    0.375839
   3 O :   -0.734212
   4 H :    0.341592
   5 H :    0.368961
   6 O :   -0.730277
   7 H :    0.321716
   8 H :    0.359513
   9 O :   -0.705664
  10 H :    0.334634
  11 H :    0.385556
  12 O :   -0.726772
  13 H :    0.369430
  14 H :    0.366320
  15 O :   -0.675389
  16 H :    0.358740
  17 H :    0.363656
  18 O :   -0.726864
  19 H :    0.367794
  20 H :    0.339157
Sum of atomic charges:    0.0000000

LOEWDIN ATOMIC CHARGES
----------------------
   0 O :   -0.287622
   1 H :    0.166471
   2 H :    0.193533
   3 O :   -0.337456
   4 H :    0.156351
   5 H :    0.143373
   6 O :   -0.344758
   7 H :    0.153659
   8 H :    0.143345
   9 O :   -0.300322
  10 H :    0.166130
  11 H :    0.155569
  12 O :   -0.315285
  13 H :    0.146629
  14 H :    0.141705
  15 O :   -0.265277
  16 H :    0.173076
  17 H :    0.178242
  18 O :   -0.356641
  19 H :    0.150548
  20 H :    0.138729

  Mayer bond orders larger than 0.100000
B(  0-O ,  1-H ) :   0.8335 B(  0-O ,  2-H ) :   0.8167 B(  3-O ,  4-H ) :   0.8482
B(  3-O ,  5-H ) :   0.7692 B(  6-O ,  7-H ) :   0.8573 B(  6-O ,  8-H ) :   0.7558
B(  8-H , 12-O ) :   0.1208 B(  9-O , 10-H ) :   0.8454 B(  9-O , 11-H ) :   0.7888
B( 12-O , 13-H ) :   0.8163 B( 12-O , 14-H ) :   0.7800 B( 15-O , 16-H ) :   0.8352
B( 15-O , 17-H ) :   0.8318 B( 18-O , 19-H ) :   0.8225 B( 18-O , 20-H ) :   0.8384

MP2 TOTAL ENERGY:     -534.250375545 Eh
FINAL SINGLE POINT ENERGY      -534.250375545131

DIPOLE MOMENT
-------------
                                X             Y             Z
Electronic contribution:      0.09918      -0.15517      -0.12329
Nuclear contribution   :      0.42190      -0.71342      -0.77428
                        -----------------------------------------
Total Dipole Moment    :      0.52108      -0.86860      -0.89757
                        -----------------------------------------
Magnitude (a.u.)       :      1.35337
Magnitude (Debye)      :      3.44000

Rotational constants in cm-1:     0.053141     0.020625     0.017134
Rotational constants in MHz :  1593.120605   618.313606   513.673593

                             ****ORCA TERMINATED NORMALLY****
TOTAL RUN TIME: 0 days 0 hours 2 minutes 29 seconds 278 msec
