                         Program Version 4.2.0 -  RELEASE  -
|  1> # 12h2o.su.etal.mol2,4,6,9,10,11
|  2> ! MP2 def2-TZVP EnGrad TightSCF
|  3>
|  4> %pal
|  5>     nprocs 6
|  6> end
|  7>
|  8> %maxcore 8000
|  9>
| 10> %scf
| 11>     ConvForced true
| 12> end
| 13>
| 14> *xyz 0 1
| 15> O   0.923410000  -1.794470000  -2.768350000
| 16> H   1.359750000  -2.338250000  -3.430940000
| 17> H   1.303000000  -0.879480000  -2.865760000
| 18> O  -0.885520000   1.737840000   0.052730000
| 19> H  -1.032320000   2.090180000  -0.841890000
| 20> H  -1.284090000   0.839590000   0.017130000
| 21> O   1.737840000   0.885520000  -0.052730000
| 22> H   2.090180000   1.032320000   0.841890000
| 23> H   0.839590000   1.284090000  -0.017130000
| 24> O   0.741530000  -1.752130000   2.896280000
| 25> H   0.920500000  -2.036450000   1.984040000
| 26> H   1.242140000  -0.921210000   2.984230000
| 27> O  -0.923410000   1.794470000  -2.768350000
| 28> H  -1.359750000   2.338250000  -3.430940000
| 29> H  -1.303000000   0.879480000  -2.865760000
| 30> O  -0.741530000   1.752130000   2.896280000
| 31> H  -0.920500000   2.036450000   1.984040000
| 32> H  -1.242140000   0.921210000   2.984230000
| 33> *
| 34>
| 35>                          ****END OF INPUT****

CARTESIAN COORDINATES (ANGSTROEM)
---------------------------------
  O      0.923410   -1.794470   -2.768350
  H      1.359750   -2.338250   -3.430940
  H      1.303000   -0.879480   -2.865760
  O     -0.885520    1.737840    0.052730
  H     -1.032320    2.090180   -0.841890
  H     -1.284090    0.839590    0.017130
  O      1.737840    0.885520   -0.052730
  H      2.090180    1.032320    0.841890
  H      0.839590    1.284090   -0.017130
  O      0.741530   -1.752130    2.896280
  H      0.920500   -2.036450    1.984040
  H      1.242140   -0.921210    2.984230
  O     -0.923410    1.794470   -2.768350
  H     -1.359750    2.338250   -3.430940
  H     -1.303000    0.879480   -2.865760
  O     -0.741530    1.752130    2.896280
  H     -0.920500    2.036450    1.984040
  H     -1.242140    0.921210    2.984230

 Total Charge           Charge          ....    0
 Multiplicity           Mult            ....    1
 Number of Electrons    NEL             ....   60
 Basis Dimension        Dim             ....  258

ORBITAL ENERGIES
----------------

  NO   OCC          E(Eh)            E(eV)
   0   2.0000     -20.608437      -560.7841
   1   2.0000     -20.591998      -560.3367
   2   2.0000     -20.564212      -559.5807
   3   2.0000     -20.552451      -559.2606
   4   2.0000     -20.537060      -558.8418
   5   2.0000     -20.529463      -558.6351
   6   2.0000      -1.388689       -37.7882
   7   2.0000      -1.375381       -37.4260
   8   2.0000      -1.339558       -36.4512
   9   2.0000      -1.331580       -36.2341
  10   2.0000      -1.318930       -35.8899
  11   2.0000      -1.310259       -35.6540
  12   2.0000      -0.754027       -20.5181
  13   2.0000      -0.740372       -20.1465
  14   2.0000      -0.707623       -19.2554
  15   2.0000      -0.694589       -18.9007
  16   2.0000      -0.690324       -18.7847
  17   2.0000      -0.684834       -18.6353
  18   2.0000      -0.634713       -17.2714
  19   2.0000      -0.609335       -16.5809
  20   2.0000      -0.576605       -15.6902
  21   2.0000      -0.571146       -15.5417
  22   2.0000      -0.568868       -15.4797
  23   2.0000      -0.556995       -15.1566
  24   2.0000      -0.543745       -14.7961
  25   2.0000      -0.521234       -14.1835
  26   2.0000      -0.507627       -13.8132
  27   2.0000      -0.497637       -13.5414
  28   2.0000      -0.482958       -13.1419
  29   2.0000      -0.477095       -12.9824
  30   0.0000       0.083157         2.2628
  31   0.0000       0.117283         3.1914
  32   0.0000       0.134100         3.6490
  33   0.0000       0.150409         4.0928
  34   0.0000       0.177869         4.8401

MULLIKEN ATOMIC CHARGES
-----------------------
   0 O :   -0.696114
   1 H :    0.338600
   2 H :    0.356928
   3 O :   -0.721330
   4 H :    0.389399
   5 H :    0.348151
   6 O :   -0.717145
   7 H :    0.326574
   8 H :    0.361739
   9 O :   -0.686510
  10 H :    0.343192
  11 H :    0.340658
  12 O :   -0.700139
  13 H :    0.357850
  14 H :    0.361119
  15 O :   -0.701744
  16 H :    0.368560
  17 H :    0.330211
Sum of atomic charges:    0.0000000

LOEWDIN ATOMIC CHARGES
----------------------
   0 O :   -0.343868
   1 H :    0.158106
   2 H :    0.184644
   3 O :   -0.283201
   4 H :    0.157827
   5 H :    0.174664
   6 O :   -0.360062
   7 H :    0.156474
   8 H :    0.141985
   9 O :   -0.333959
  10 H :    0.166743
  11 H :    0.164963
  12 O :   -0.309467
  13 H :    0.166517
  14 H :    0.187673
  15 O :   -0.339394
  16 H :    0.149801
  17 H :    0.160554

  Mayer bond orders larger than 0.100000
B(  0-O ,  1-H ) :   0.8529 B(  0-O ,  2-H ) :   0.8331 B(  3-O ,  4-H ) :   0.7907
B(  3-O ,  5-H ) :   0.8361 B(  6-O ,  7-H ) :   0.8575 B(  6-O ,  8-H ) :   0.7996
B(  9-O , 10-H ) :   0.8482 B(  9-O , 11-H ) :   0.8468 B( 12-O , 13-H ) :   0.8386
B( 12-O , 14-H ) :   0.8278 B( 15-O , 16-H ) :   0.8218 B( 15-O , 17-H ) :   0.8536

MP2 TOTAL ENERGY:     -457.906446193 Eh
FINAL SINGLE POINT ENERGY      -457.906446192695

DIPOLE MOMENT
-------------
                                X             Y             Z
Electronic contribution:     -0.06359       0.14869       0.00390
Nuclear contribution   :     -0.90834      -0.00045      -2.63740
                        -----------------------------------------
Total Dipole Moment    :     -0.97193       0.14824      -2.63350
                        -----------------------------------------
Magnitude (a.u.)       :      2.81104
Magnitude (Debye)      :      7.14509

Rotational constants in cm-1:     0.042607     0.026267     0.018393
Rotational constants in MHz :  1277.324485   787.461619   551.418551

                             ****ORCA TERMINATED NORMALLY****
TOTAL RUN TIME: 0 days 0 hours 0 minutes 56 seconds 476 msec
