                         Program Version 4.2.0 -  RELEASE  -
|  1> # 12h2o.su.etal.mol0,1,4,5,7,9,10
|  2> ! MP2 def2-TZVP EnGrad TightSCF
|  3>
|  4> %pal
|  5>     nprocs 6
|  6> end
|  7>
|  8> %maxcore 8000
|  9>
| 10> %scf
| 11>     ConvForced true
| 12> end
| 13>
| 14> *xyz 0 1
| 15> O   1.794470000   0.923410000   2.768350000
| 16> H   2.338250000   1.359750000   3.430940000
| 17> H   0.879480000   1.303000000   2.865760000
| 18> O  -1.794470000  -0.923410000   2.768350000
| 19> H  -2.338250000  -1.359750000   3.430940000
| 20> H  -0.879480000  -1.303000000   2.865760000
| 21> O  -0.885520000   1.737840000   0.052730000
| 22> H  -1.032320000   2.090180000  -0.841890000
| 23> H  -1.284090000   0.839590000   0.017130000
| 24> O   0.885520000  -1.737840000   0.052730000
| 25> H   1.284090000  -0.839590000   0.017130000
| 26> H   1.032320000  -2.090180000  -0.841890000
| 27> O  -1.737840000  -0.885520000  -0.052730000
| 28> H  -2.090180000  -1.032320000   0.841890000
| 29> H  -0.839590000  -1.284090000  -0.017130000
| 30> O   0.741530000  -1.752130000   2.896280000
| 31> H   0.920500000  -2.036450000   1.984040000
| 32> H   1.242140000  -0.921210000   2.984230000
| 33> O  -0.923410000   1.794470000  -2.768350000
| 34> H  -1.359750000   2.338250000  -3.430940000
| 35> H  -1.303000000   0.879480000  -2.865760000
| 36> *
| 37>
| 38>                          ****END OF INPUT****

CARTESIAN COORDINATES (ANGSTROEM)
---------------------------------
  O      1.794470    0.923410    2.768350
  H      2.338250    1.359750    3.430940
  H      0.879480    1.303000    2.865760
  O     -1.794470   -0.923410    2.768350
  H     -2.338250   -1.359750    3.430940
  H     -0.879480   -1.303000    2.865760
  O     -0.885520    1.737840    0.052730
  H     -1.032320    2.090180   -0.841890
  H     -1.284090    0.839590    0.017130
  O      0.885520   -1.737840    0.052730
  H      1.284090   -0.839590    0.017130
  H      1.032320   -2.090180   -0.841890
  O     -1.737840   -0.885520   -0.052730
  H     -2.090180   -1.032320    0.841890
  H     -0.839590   -1.284090   -0.017130
  O      0.741530   -1.752130    2.896280
  H      0.920500   -2.036450    1.984040
  H      1.242140   -0.921210    2.984230
  O     -0.923410    1.794470   -2.768350
  H     -1.359750    2.338250   -3.430940
  H     -1.303000    0.879480   -2.865760

 Total Charge           Charge          ....    0
 Multiplicity           Mult            ....    1
 Number of Electrons    NEL             ....   70
 Basis Dimension        Dim             ....  301

ORBITAL ENERGIES
----------------

  NO   OCC          E(Eh)            E(eV)
   0   2.0000     -20.610907      -560.8513
   1   2.0000     -20.582598      -560.0810
   2   2.0000     -20.575324      -559.8830
   3   2.0000     -20.551746      -559.2414
   4   2.0000     -20.530694      -558.6686
   5   2.0000     -20.523639      -558.4766
   6   2.0000     -20.485698      -557.4442
   7   2.0000      -1.394212       -37.9384
   8   2.0000      -1.361379       -37.0450
   9   2.0000      -1.353226       -36.8231
  10   2.0000      -1.343678       -36.5633
  11   2.0000      -1.318788       -35.8860
  12   2.0000      -1.307651       -35.5830
  13   2.0000      -1.269459       -34.5437
  14   2.0000      -0.752478       -20.4760
  15   2.0000      -0.728739       -19.8300
  16   2.0000      -0.720119       -19.5954
  17   2.0000      -0.709343       -19.3022
  18   2.0000      -0.697487       -18.9796
  19   2.0000      -0.690326       -18.7847
  20   2.0000      -0.652290       -17.7497
  21   2.0000      -0.638957       -17.3869
  22   2.0000      -0.603177       -16.4133
  23   2.0000      -0.592278       -16.1167
  24   2.0000      -0.586171       -15.9505
  25   2.0000      -0.578221       -15.7342
  26   2.0000      -0.546781       -14.8787
  27   2.0000      -0.541566       -14.7368
  28   2.0000      -0.526125       -14.3166
  29   2.0000      -0.522550       -14.2193
  30   2.0000      -0.501892       -13.6572
  31   2.0000      -0.493574       -13.4308
  32   2.0000      -0.479403       -13.0452
  33   2.0000      -0.464720       -12.6457
  34   2.0000      -0.436957       -11.8902
  35   0.0000       0.100179         2.7260
  36   0.0000       0.125099         3.4041
  37   0.0000       0.133455         3.6315
  38   0.0000       0.161519         4.3952
  39   0.0000       0.193426         5.2634

MULLIKEN ATOMIC CHARGES
-----------------------
   0 O :   -0.710213
   1 H :    0.352140
   2 H :    0.382913
   3 O :   -0.737992
   4 H :    0.332051
   5 H :    0.368723
   6 O :   -0.748884
   7 H :    0.353743
   8 H :    0.349499
   9 O :   -0.720299
  10 H :    0.383889
  11 H :    0.366914
  12 O :   -0.733869
  13 H :    0.378819
  14 H :    0.345641
  15 O :   -0.715660
  16 H :    0.379168
  17 H :    0.366829
  18 O :   -0.695337
  19 H :    0.345261
  20 H :    0.356663
Sum of atomic charges:   -0.0000000

LOEWDIN ATOMIC CHARGES
----------------------
   0 O :   -0.313436
   1 H :    0.163861
   2 H :    0.196497
   3 O :   -0.342129
   4 H :    0.151401
   5 H :    0.142945
   6 O :   -0.377878
   7 H :    0.141581
   8 H :    0.135503
   9 O :   -0.278641
  10 H :    0.188847
  11 H :    0.177243
  12 O :   -0.323349
  13 H :    0.150848
  14 H :    0.135459
  15 O :   -0.285926
  16 H :    0.154324
  17 H :    0.150194
  18 O :   -0.312658
  19 H :    0.159897
  20 H :    0.185418

  Mayer bond orders larger than 0.100000
B(  0-O ,  1-H ) :   0.8418 B(  0-O ,  2-H ) :   0.8122 B(  3-O ,  4-H ) :   0.8531
B(  3-O ,  5-H ) :   0.7530 B(  5-H , 15-O ) :   0.1091 B(  6-O ,  7-H ) :   0.8326
B(  6-O ,  8-H ) :   0.7923 B(  9-O , 10-H ) :   0.8094 B(  9-O , 11-H ) :   0.8303
B( 12-O , 13-H ) :   0.7979 B( 12-O , 14-H ) :   0.8078 B( 15-O , 16-H ) :   0.8145
B( 15-O , 17-H ) :   0.8006 B( 18-O , 19-H ) :   0.8455 B( 18-O , 20-H ) :   0.8323

MP2 TOTAL ENERGY:     -534.252235763 Eh
FINAL SINGLE POINT ENERGY      -534.252235762616

DIPOLE MOMENT
-------------
                                X             Y             Z
Electronic contribution:      0.45923      -0.08973       0.08207
Nuclear contribution   :      0.34090      -0.30796      -0.82779
                        -----------------------------------------
Total Dipole Moment    :      0.80013      -0.39769      -0.74572
                        -----------------------------------------
Magnitude (a.u.)       :      1.16382
Magnitude (Debye)      :      2.95819

Rotational constants in cm-1:     0.046191     0.021972     0.020334
Rotational constants in MHz :  1384.775014   658.715846   609.598561

                             ****ORCA TERMINATED NORMALLY****
TOTAL RUN TIME: 0 days 0 hours 2 minutes 16 seconds 295 msec
