                         Program Version 4.2.0 -  RELEASE  -
|  1> # 12meoh.boyd.etal.mol1,3,4
|  2> ! MP2 def2-TZVP EnGrad TightSCF
|  3>
|  4> %pal
|  5>     nprocs 6
|  6> end
|  7>
|  8> %maxcore 8000
|  9>
| 10> %scf
| 11>     ConvForced true
| 12> end
| 13>
| 14> *xyz 0 1
| 15> O   0.666045193  -2.600503172   0.138317521
| 16> H  -0.227115049  -2.712051982  -0.281868004
| 17> C   0.490021232  -1.851247678   1.341189459
| 18> H   1.466500502  -1.466176022   1.645844415
| 19> H   0.097564527  -2.488364683   2.146902740
| 20> H  -0.187588112  -1.000787499   1.200739571
| 21> O  -3.821405976  -2.118091637   0.596795346
| 22> H  -4.342989117  -1.344303030   0.251966383
| 23> C  -3.443883586  -1.809641231   1.934889393
| 24> H  -2.831494349  -2.637429600   2.305201764
| 25> H  -4.325601146  -1.719364371   2.585074667
| 26> H  -2.858527126  -0.882644791   1.996110694
| 27> O  -1.358578914   1.232360421   1.189721000
| 28> H  -1.058250183   1.216459361   0.238591307
| 29> C  -0.389763452   1.957872567   1.943072362
| 30> H  -0.747220771   2.012806578   2.975200343
| 31> H  -0.260410585   2.982763209   1.565366540
| 32> H   0.585220638   1.453754179   1.934070793
| 33> *
| 34>
| 35>                          ****END OF INPUT****

CARTESIAN COORDINATES (ANGSTROEM)
---------------------------------
  O      0.666045   -2.600503    0.138318
  H     -0.227115   -2.712052   -0.281868
  C      0.490021   -1.851248    1.341189
  H      1.466501   -1.466176    1.645844
  H      0.097565   -2.488365    2.146903
  H     -0.187588   -1.000787    1.200740
  O     -3.821406   -2.118092    0.596795
  H     -4.342989   -1.344303    0.251966
  C     -3.443884   -1.809641    1.934889
  H     -2.831494   -2.637430    2.305202
  H     -4.325601   -1.719364    2.585075
  H     -2.858527   -0.882645    1.996111
  O     -1.358579    1.232360    1.189721
  H     -1.058250    1.216459    0.238591
  C     -0.389763    1.957873    1.943072
  H     -0.747221    2.012807    2.975200
  H     -0.260411    2.982763    1.565367
  H      0.585221    1.453754    1.934071

 Total Charge           Charge          ....    0
 Multiplicity           Mult            ....    1
 Number of Electrons    NEL             ....   54
 Basis Dimension        Dim             ....  258

ORBITAL ENERGIES
----------------

  NO   OCC          E(Eh)            E(eV)
   0   2.0000     -20.572416      -559.8039
   1   2.0000     -20.555917      -559.3550
   2   2.0000     -20.548809      -559.1615
   3   2.0000     -11.282320      -307.0075
   4   2.0000     -11.264615      -306.5258
   5   2.0000     -11.262524      -306.4689
   6   2.0000      -1.360207       -37.0131
   7   2.0000      -1.344669       -36.5903
   8   2.0000      -1.337115       -36.3848
   9   2.0000      -0.930896       -25.3310
  10   2.0000      -0.914964       -24.8974
  11   2.0000      -0.911445       -24.8017
  12   2.0000      -0.694183       -18.8897
  13   2.0000      -0.677979       -18.4487
  14   2.0000      -0.673391       -18.3239
  15   2.0000      -0.631264       -17.1776
  16   2.0000      -0.614221       -16.7138
  17   2.0000      -0.607154       -16.5215
  18   2.0000      -0.601701       -16.3731
  19   2.0000      -0.587011       -15.9734
  20   2.0000      -0.582559       -15.8522
  21   2.0000      -0.514128       -13.9901
  22   2.0000      -0.496606       -13.5133
  23   2.0000      -0.494040       -13.4435
  24   2.0000      -0.462169       -12.5763
  25   2.0000      -0.445368       -12.1191
  26   2.0000      -0.440375       -11.9832
  27   0.0000       0.115343         3.1387
  28   0.0000       0.140592         3.8257
  29   0.0000       0.160499         4.3674
  30   0.0000       0.160678         4.3723
  31   0.0000       0.180002         4.8981

MULLIKEN ATOMIC CHARGES
-----------------------
   0 O :   -0.506959
   1 H :    0.329040
   2 C :   -0.167035
   3 H :    0.123250
   4 H :    0.102596
   5 H :    0.101707
   6 O :   -0.509365
   7 H :    0.323042
   8 C :   -0.191935
   9 H :    0.121884
  10 H :    0.113438
  11 H :    0.137211
  12 O :   -0.494393
  13 H :    0.329170
  14 C :   -0.179937
  15 H :    0.132056
  16 H :    0.120340
  17 H :    0.115891
Sum of atomic charges:    0.0000000

LOEWDIN ATOMIC CHARGES
----------------------
   0 O :   -0.113688
   1 H :    0.191899
   2 C :   -0.383215
   3 H :    0.105941
   4 H :    0.095431
   5 H :    0.096803
   6 O :   -0.114130
   7 H :    0.191374
   8 C :   -0.386796
   9 H :    0.107551
  10 H :    0.095443
  11 H :    0.099476
  12 O :   -0.106321
  13 H :    0.193802
  14 C :   -0.380875
  15 H :    0.111386
  16 H :    0.099703
  17 H :    0.096215

  Mayer bond orders larger than 0.100000
B(  0-O ,  1-H ) :   0.8388 B(  0-O ,  2-C ) :   0.9222 B(  2-C ,  3-H ) :   0.9367
B(  2-C ,  4-H ) :   0.9371 B(  2-C ,  5-H ) :   0.9383 B(  6-O ,  7-H ) :   0.8419
B(  6-O ,  8-C ) :   0.9109 B(  8-C ,  9-H ) :   0.9376 B(  8-C , 10-H ) :   0.9387
B(  8-C , 11-H ) :   0.9318 B( 12-O , 13-H ) :   0.8355 B( 12-O , 14-C ) :   0.9056
B( 14-C , 15-H ) :   0.9390 B( 14-C , 16-H ) :   0.9373 B( 14-C , 17-H ) :   0.9361

MP2 TOTAL ENERGY:     -346.526052605 Eh
FINAL SINGLE POINT ENERGY      -346.526052604569

DIPOLE MOMENT
-------------
                                X             Y             Z
Electronic contribution:     -1.34159      -2.23024      -3.96406
Nuclear contribution   :      1.10606       3.51399       4.25222
                        -----------------------------------------
Total Dipole Moment    :     -0.23553       1.28375       0.28817
                        -----------------------------------------
Magnitude (a.u.)       :      1.33661
Magnitude (Debye)      :      3.39739

Rotational constants in cm-1:     0.053714     0.044022     0.026782
Rotational constants in MHz :  1610.312171  1319.761207   802.917620

                             ****ORCA TERMINATED NORMALLY****
TOTAL RUN TIME: 0 days 0 hours 1 minutes 15 seconds 237 msec
