                         Program Version 4.2.0 -  RELEASE  -
|  1> # 12mecn.remya.etal.2.mol2,4,10
|  2> ! MP2 def2-TZVP EnGrad TightSCF
|  3>
|  4> %pal
|  5>     nprocs 6
|  6> end
|  7>
|  8> %maxcore 8000
|  9>
| 10> %scf
| 11>     ConvForced true
| 12> end
| 13>
| 14> *xyz 0 1
| 15> C  -4.219070000  -3.477410000  -1.501740000
| 16> H  -3.251530000  -3.803540000  -1.893830000
| 17> H  -4.452920000  -2.481700000  -1.890840000
| 18> H  -4.992170000  -4.178130000  -1.824640000
| 19> C  -4.154550000  -3.418790000  -0.058340000
| 20> N  -4.091140000  -3.354840000   1.104432000
| 21> C  -1.509690000  -0.693960000  -1.610140000
| 22> H  -1.327010000  -1.692700000  -2.017370000
| 23> H  -0.742170000  -0.000650000  -1.964400000
| 24> H  -2.491920000  -0.334310000  -1.929350000
| 25> C  -1.473570000  -0.748120000  -0.167200000
| 26> N  -1.447490000  -0.793720000   0.998938000
| 27> C   4.602033000   0.321019000  -1.784800000
| 28> H   4.827650000  -0.662160000  -2.207910000
| 29> H   5.320558000   1.057980000  -2.148500000
| 30> H   3.601982000   0.643751000  -2.087520000
| 31> C   4.654967000   0.244048000  -0.343060000
| 32> N   4.691648000   0.166590000   0.820757000
| 33> *
| 34>
| 35>                          ****END OF INPUT****

CARTESIAN COORDINATES (ANGSTROEM)
---------------------------------
  C     -4.219070   -3.477410   -1.501740
  H     -3.251530   -3.803540   -1.893830
  H     -4.452920   -2.481700   -1.890840
  H     -4.992170   -4.178130   -1.824640
  C     -4.154550   -3.418790   -0.058340
  N     -4.091140   -3.354840    1.104432
  C     -1.509690   -0.693960   -1.610140
  H     -1.327010   -1.692700   -2.017370
  H     -0.742170   -0.000650   -1.964400
  H     -2.491920   -0.334310   -1.929350
  C     -1.473570   -0.748120   -0.167200
  N     -1.447490   -0.793720    0.998938
  C      4.602033    0.321019   -1.784800
  H      4.827650   -0.662160   -2.207910
  H      5.320558    1.057980   -2.148500
  H      3.601982    0.643751   -2.087520
  C      4.654967    0.244048   -0.343060
  N      4.691648    0.166590    0.820757

 Total Charge           Charge          ....    0
 Multiplicity           Mult            ....    1
 Number of Electrons    NEL             ....   66
 Basis Dimension        Dim             ....  333

ORBITAL ENERGIES
----------------

  NO   OCC          E(Eh)            E(eV)
   0   2.0000     -15.573596      -423.7791
   1   2.0000     -15.571769      -423.7294
   2   2.0000     -15.571742      -423.7286
   3   2.0000     -11.291962      -307.2699
   4   2.0000     -11.290540      -307.2312
   5   2.0000     -11.287849      -307.1580
   6   2.0000     -11.279811      -306.9393
   7   2.0000     -11.276389      -306.8461
   8   2.0000     -11.275972      -306.8348
   9   2.0000      -1.214398       -33.0455
  10   2.0000      -1.212533       -32.9947
  11   2.0000      -1.210973       -32.9522
  12   2.0000      -1.049778       -28.5659
  13   2.0000      -1.046645       -28.4807
  14   2.0000      -1.046435       -28.4750
  15   2.0000      -0.704676       -19.1752
  16   2.0000      -0.702062       -19.1041
  17   2.0000      -0.702018       -19.1029
  18   2.0000      -0.643963       -17.5231
  19   2.0000      -0.641040       -17.4436
  20   2.0000      -0.636999       -17.3336
  21   2.0000      -0.635088       -17.2816
  22   2.0000      -0.632700       -17.2166
  23   2.0000      -0.630967       -17.1695
  24   2.0000      -0.555421       -15.1138
  25   2.0000      -0.553582       -15.0637
  26   2.0000      -0.550674       -14.9846
  27   2.0000      -0.462939       -12.5972
  28   2.0000      -0.457864       -12.4591
  29   2.0000      -0.457280       -12.4432
  30   2.0000      -0.456875       -12.4322
  31   2.0000      -0.453722       -12.3464
  32   2.0000      -0.446736       -12.1563
  33   0.0000       0.090035         2.4500
  34   0.0000       0.109929         2.9913
  35   0.0000       0.140898         3.8340
  36   0.0000       0.143849         3.9143
  37   0.0000       0.152884         4.1602

MULLIKEN ATOMIC CHARGES
-----------------------
   0 C :   -0.286516
   1 H :    0.165022
   2 H :    0.163213
   3 H :    0.182467
   4 C :   -0.154537
   5 N :   -0.069579
   6 C :   -0.283584
   7 H :    0.162625
   8 H :    0.176207
   9 H :    0.167381
  10 C :   -0.154370
  11 N :   -0.068328
  12 C :   -0.279030
  13 H :    0.172190
  14 H :    0.173055
  15 H :    0.164987
  16 C :   -0.145730
  17 N :   -0.085474
Sum of atomic charges:   -0.0000000

LOEWDIN ATOMIC CHARGES
----------------------
   0 C :   -0.288630
   1 H :    0.149203
   2 H :    0.149107
   3 H :    0.151999
   4 C :   -0.224681
   5 N :    0.063095
   6 C :   -0.289206
   7 H :    0.148279
   8 H :    0.151689
   9 H :    0.150256
  10 C :   -0.226260
  11 N :    0.065147
  12 C :   -0.284991
  13 H :    0.152460
  14 H :    0.151550
  15 H :    0.150702
  16 C :   -0.220916
  17 N :    0.051195

  Mayer bond orders larger than 0.100000
B(  0-C ,  1-H ) :   0.9230 B(  0-C ,  2-H ) :   0.9208 B(  0-C ,  3-H ) :   0.9113
B(  0-C ,  4-C ) :   0.8987 B(  4-C ,  5-N ) :   2.8245 B(  6-C ,  7-H ) :   0.9212
B(  6-C ,  8-H ) :   0.9135 B(  6-C ,  9-H ) :   0.9228 B(  6-C , 10-C ) :   0.8958
B( 10-C , 11-N ) :   2.8220 B( 12-C , 13-H ) :   0.9166 B( 12-C , 14-H ) :   0.9171
B( 12-C , 15-H ) :   0.9187 B( 12-C , 16-C ) :   0.9014 B( 16-C , 17-N ) :   2.8323

MP2 TOTAL ENERGY:     -397.445581210 Eh
FINAL SINGLE POINT ENERGY      -397.445581209749

DIPOLE MOMENT
-------------
                                X             Y             Z
Electronic contribution:      0.34806      -0.19231       9.56701
Nuclear contribution   :     -0.50499       0.27228     -13.89805
                        -----------------------------------------
Total Dipole Moment    :     -0.15693       0.07998      -4.33105
                        -----------------------------------------
Magnitude (a.u.)       :      4.33463
Magnitude (Debye)      :     11.01775

Rotational constants in cm-1:     0.076856     0.008516     0.008113
Rotational constants in MHz :  2304.074766   255.317271   243.234786

                             ****ORCA TERMINATED NORMALLY****
TOTAL RUN TIME: 0 days 0 hours 2 minutes 35 seconds 637 msec
