                         Program Version 4.2.0 -  RELEASE  -
|  1> # 12meoh.boyd.etal.mol6,10
|  2> ! MP2 def2-TZVP EnGrad TightSCF
|  3>
|  4> %pal
|  5>     nprocs 6
|  6> end
|  7>
|  8> %maxcore 8000
|  9>
| 10> %scf
| 11>     ConvForced true
| 12> end
| 13>
| 14> *xyz 0 1
| 15> O   2.622209273  -1.703002590  -1.445859723
| 16> H   1.828551432  -1.986513781  -0.909754968
| 17> C   2.781117675  -2.615822239  -2.525472890
| 18> H   3.691063626  -2.339003544  -3.065143454
| 19> H   1.934727323  -2.559520367  -3.223226661
| 20> H   2.879948338  -3.653846211  -2.177750170
| 21> O  -5.201143618   0.064582726  -0.172223772
| 22> H  -4.686891530   0.869258890   0.107806143
| 23> C  -6.513192168   0.171391798   0.359883449
| 24> H  -7.049381312  -0.749234190   0.111361174
| 25> H  -7.057741163   1.017801101  -0.081819420
| 26> H  -6.514770575   0.292264928   1.453058834
| 27> *
| 28>
| 29>                          ****END OF INPUT****

CARTESIAN COORDINATES (ANGSTROEM)
---------------------------------
  O      2.622209   -1.703003   -1.445860
  H      1.828551   -1.986514   -0.909755
  C      2.781118   -2.615822   -2.525473
  H      3.691064   -2.339004   -3.065143
  H      1.934727   -2.559520   -3.223227
  H      2.879948   -3.653846   -2.177750
  O     -5.201144    0.064583   -0.172224
  H     -4.686892    0.869259    0.107806
  C     -6.513192    0.171392    0.359883
  H     -7.049381   -0.749234    0.111361
  H     -7.057741    1.017801   -0.081819
  H     -6.514771    0.292265    1.453059

 Total Charge           Charge          ....    0
 Multiplicity           Mult            ....    1
 Number of Electrons    NEL             ....   36
 Basis Dimension        Dim             ....  172

ORBITAL ENERGIES
----------------

  NO   OCC          E(Eh)            E(eV)
   0   2.0000     -20.558979      -559.4383
   1   2.0000     -20.555928      -559.3552
   2   2.0000     -11.272571      -306.7422
   3   2.0000     -11.269801      -306.6669
   4   2.0000      -1.349053       -36.7096
   5   2.0000      -1.344046       -36.5733
   6   2.0000      -0.920425       -25.0460
   7   2.0000      -0.917508       -24.9667
   8   2.0000      -0.683611       -18.6020
   9   2.0000      -0.679037       -18.4775
  10   2.0000      -0.618061       -16.8183
  11   2.0000      -0.615150       -16.7391
  12   2.0000      -0.592833       -16.1318
  13   2.0000      -0.589350       -16.0370
  14   2.0000      -0.501168       -13.6375
  15   2.0000      -0.497988       -13.5510
  16   2.0000      -0.449910       -12.2427
  17   2.0000      -0.447101       -12.1662
  18   0.0000       0.133942         3.6447
  19   0.0000       0.136846         3.7238
  20   0.0000       0.174800         4.7566
  21   0.0000       0.177441         4.8284
  22   0.0000       0.228072         6.2062

MULLIKEN ATOMIC CHARGES
-----------------------
   0 O :   -0.498463
   1 H :    0.322464
   2 C :   -0.172093
   3 H :    0.128813
   4 H :    0.110141
   5 H :    0.109137
   6 O :   -0.497109
   7 H :    0.322144
   8 C :   -0.172451
   9 H :    0.129081
  10 H :    0.109186
  11 H :    0.109149
Sum of atomic charges:    0.0000000

LOEWDIN ATOMIC CHARGES
----------------------
   0 O :   -0.111317
   1 H :    0.192945
   2 C :   -0.382544
   3 H :    0.110121
   4 H :    0.095443
   5 H :    0.095353
   6 O :   -0.107329
   7 H :    0.191174
   8 C :   -0.384906
   9 H :    0.110390
  10 H :    0.095291
  11 H :    0.095381

  Mayer bond orders larger than 0.100000
B(  0-O ,  1-H ) :   0.8408 B(  0-O ,  2-C ) :   0.9263 B(  2-C ,  3-H ) :   0.9374
B(  2-C ,  4-H ) :   0.9390 B(  2-C ,  5-H ) :   0.9390 B(  6-O ,  7-H ) :   0.8418
B(  6-O ,  8-C ) :   0.9269 B(  8-C ,  9-H ) :   0.9376 B(  8-C , 10-H ) :   0.9390
B(  8-C , 11-H ) :   0.9385

MP2 TOTAL ENERGY:     -231.013112219 Eh
FINAL SINGLE POINT ENERGY      -231.013112218906

DIPOLE MOMENT
-------------
                                X             Y             Z
Electronic contribution:      1.55022       0.94697       0.58424
Nuclear contribution   :     -2.19005      -0.95602      -0.30310
                        -----------------------------------------
Total Dipole Moment    :     -0.63983      -0.00905       0.28114
                        -----------------------------------------
Magnitude (a.u.)       :      0.69893
Magnitude (Debye)      :      1.77654

Rotational constants in cm-1:     0.764085     0.012558     0.012442
Rotational constants in MHz : 22906.687529   376.489003   373.014374

                             ****ORCA TERMINATED NORMALLY****
TOTAL RUN TIME: 0 days 0 hours 0 minutes 15 seconds 191 msec
