                         Program Version 4.2.0 -  RELEASE  -
|  1> # 12h2o.su.etal.mol0,1,2,4,5,8,9
|  2> ! MP2 def2-TZVP EnGrad TightSCF
|  3>
|  4> %pal
|  5>     nprocs 6
|  6> end
|  7>
|  8> %maxcore 8000
|  9>
| 10> %scf
| 11>     ConvForced true
| 12> end
| 13>
| 14> *xyz 0 1
| 15> O   1.794470000   0.923410000   2.768350000
| 16> H   2.338250000   1.359750000   3.430940000
| 17> H   0.879480000   1.303000000   2.865760000
| 18> O  -1.794470000  -0.923410000   2.768350000
| 19> H  -2.338250000  -1.359750000   3.430940000
| 20> H  -0.879480000  -1.303000000   2.865760000
| 21> O   0.923410000  -1.794470000  -2.768350000
| 22> H   1.359750000  -2.338250000  -3.430940000
| 23> H   1.303000000  -0.879480000  -2.865760000
| 24> O  -0.885520000   1.737840000   0.052730000
| 25> H  -1.032320000   2.090180000  -0.841890000
| 26> H  -1.284090000   0.839590000   0.017130000
| 27> O   0.885520000  -1.737840000   0.052730000
| 28> H   1.284090000  -0.839590000   0.017130000
| 29> H   1.032320000  -2.090180000  -0.841890000
| 30> O   1.752130000   0.741530000  -2.896280000
| 31> H   2.036450000   0.920500000  -1.984040000
| 32> H   0.921210000   1.242140000  -2.984230000
| 33> O   0.741530000  -1.752130000   2.896280000
| 34> H   0.920500000  -2.036450000   1.984040000
| 35> H   1.242140000  -0.921210000   2.984230000
| 36> *
| 37>
| 38>                          ****END OF INPUT****

CARTESIAN COORDINATES (ANGSTROEM)
---------------------------------
  O      1.794470    0.923410    2.768350
  H      2.338250    1.359750    3.430940
  H      0.879480    1.303000    2.865760
  O     -1.794470   -0.923410    2.768350
  H     -2.338250   -1.359750    3.430940
  H     -0.879480   -1.303000    2.865760
  O      0.923410   -1.794470   -2.768350
  H      1.359750   -2.338250   -3.430940
  H      1.303000   -0.879480   -2.865760
  O     -0.885520    1.737840    0.052730
  H     -1.032320    2.090180   -0.841890
  H     -1.284090    0.839590    0.017130
  O      0.885520   -1.737840    0.052730
  H      1.284090   -0.839590    0.017130
  H      1.032320   -2.090180   -0.841890
  O      1.752130    0.741530   -2.896280
  H      2.036450    0.920500   -1.984040
  H      0.921210    1.242140   -2.984230
  O      0.741530   -1.752130    2.896280
  H      0.920500   -2.036450    1.984040
  H      1.242140   -0.921210    2.984230

 Total Charge           Charge          ....    0
 Multiplicity           Mult            ....    1
 Number of Electrons    NEL             ....   70
 Basis Dimension        Dim             ....  301

ORBITAL ENERGIES
----------------

  NO   OCC          E(Eh)            E(eV)
   0   2.0000     -20.617495      -561.0306
   1   2.0000     -20.584208      -560.1248
   2   2.0000     -20.568708      -559.7030
   3   2.0000     -20.554073      -559.3048
   4   2.0000     -20.550612      -559.2106
   5   2.0000     -20.528997      -558.6224
   6   2.0000     -20.498847      -557.8020
   7   2.0000      -1.402922       -38.1754
   8   2.0000      -1.362186       -37.0670
   9   2.0000      -1.344478       -36.5851
  10   2.0000      -1.341670       -36.5087
  11   2.0000      -1.330477       -36.2041
  12   2.0000      -1.319184       -35.8968
  13   2.0000      -1.279936       -34.8288
  14   2.0000      -0.760097       -20.6833
  15   2.0000      -0.728994       -19.8369
  16   2.0000      -0.725012       -19.7286
  17   2.0000      -0.706122       -19.2146
  18   2.0000      -0.702050       -19.1037
  19   2.0000      -0.684510       -18.6265
  20   2.0000      -0.665776       -18.1167
  21   2.0000      -0.640907       -17.4400
  22   2.0000      -0.606389       -16.5007
  23   2.0000      -0.593578       -16.1521
  24   2.0000      -0.584526       -15.9058
  25   2.0000      -0.578698       -15.7472
  26   2.0000      -0.557814       -15.1789
  27   2.0000      -0.541359       -14.7311
  28   2.0000      -0.530218       -14.4280
  29   2.0000      -0.516122       -14.0444
  30   2.0000      -0.511712       -13.9244
  31   2.0000      -0.502070       -13.6620
  32   2.0000      -0.496119       -13.5001
  33   2.0000      -0.468958       -12.7610
  34   2.0000      -0.449711       -12.2373
  35   0.0000       0.075536         2.0554
  36   0.0000       0.120276         3.2729
  37   0.0000       0.134696         3.6653
  38   0.0000       0.154992         4.2175
  39   0.0000       0.164030         4.4635

MULLIKEN ATOMIC CHARGES
-----------------------
   0 O :   -0.708980
   1 H :    0.351374
   2 H :    0.378171
   3 O :   -0.742357
   4 H :    0.318875
   5 H :    0.370813
   6 O :   -0.734277
   7 H :    0.339991
   8 H :    0.367831
   9 O :   -0.687895
  10 H :    0.320759
  11 H :    0.368086
  12 O :   -0.710546
  13 H :    0.323395
  14 H :    0.378047
  15 O :   -0.674061
  16 H :    0.361230
  17 H :    0.358720
  18 O :   -0.720483
  19 H :    0.384256
  20 H :    0.357052
Sum of atomic charges:   -0.0000000

LOEWDIN ATOMIC CHARGES
----------------------
   0 O :   -0.314227
   1 H :    0.163101
   2 H :    0.194306
   3 O :   -0.378595
   4 H :    0.145616
   5 H :    0.142186
   6 O :   -0.338731
   7 H :    0.155442
   8 H :    0.142766
   9 O :   -0.337710
  10 H :    0.156790
  11 H :    0.182427
  12 O :   -0.324167
  13 H :    0.160374
  14 H :    0.154198
  15 O :   -0.265215
  16 H :    0.174028
  17 H :    0.176014
  18 O :   -0.291164
  19 H :    0.156317
  20 H :    0.146243

  Mayer bond orders larger than 0.100000
B(  0-O ,  1-H ) :   0.8423 B(  0-O ,  2-H ) :   0.8159 B(  3-O ,  4-H ) :   0.8635
B(  3-O ,  5-H ) :   0.7656 B(  5-H , 18-O ) :   0.1057 B(  6-O ,  7-H ) :   0.8490
B(  6-O ,  8-H ) :   0.7722 B(  9-O , 10-H ) :   0.8602 B(  9-O , 11-H ) :   0.8254
B( 12-O , 13-H ) :   0.8496 B( 12-O , 14-H ) :   0.7981 B( 15-O , 16-H ) :   0.8338
B( 15-O , 17-H ) :   0.8349 B( 18-O , 19-H ) :   0.8023 B( 18-O , 20-H ) :   0.8130

MP2 TOTAL ENERGY:     -534.239795768 Eh
FINAL SINGLE POINT ENERGY      -534.239795768255

DIPOLE MOMENT
-------------
                                X             Y             Z
Electronic contribution:      0.28807       0.10241      -0.23599
Nuclear contribution   :      0.78984       1.32960      -0.91596
                        -----------------------------------------
Total Dipole Moment    :      1.07790       1.43201      -1.15195
                        -----------------------------------------
Magnitude (a.u.)       :      2.13062
Magnitude (Debye)      :      5.41559

Rotational constants in cm-1:     0.040671     0.018692     0.017243
Rotational constants in MHz :  1219.285364   560.381573   516.934070

                             ****ORCA TERMINATED NORMALLY****
TOTAL RUN TIME: 0 days 0 hours 3 minutes 8 seconds 572 msec
