                         Program Version 3.0.3 - RELEASE   -
|  1> ! wB97X-D3 Def2-TZVP def2-TZVP/J RIJCOSX TightSCF Grid4 COSMO
|  2>
|  3> %pal nprocs 12 end
|  4>
|  5> %scf
|  6>         maxiter 400
|  7> end
|  8>
|  9> %cosmo
| 10>         SMD true
| 11>         solvent "WATER"
| 12> end
| 13>
| 14> * xyz  0  1
| 15> O  3.073672	0.824351	-3.041152
| 16> H  3.585628	1.355768	-3.682145
| 17> H  2.433587	0.243965	-3.598960
| 18> O  -2.220201	0.551597	-0.357248
| 19> H  -3.058096	0.767288	0.158502
| 20> H  -1.550510	1.213771	0.021938
| 21> O  -0.440292	-0.075332	-2.266484
| 22> H  -1.296865	0.147143	-1.808654
| 23> H  0.221474	0.584314	-1.864973
| 24> O  1.371565	-0.782081	-4.197166
| 25> H  1.691382	-1.609278	-3.727958
| 26> H  0.546152	-0.546572	-3.697110
| 27> O  2.300706	-2.730354	-2.572755
| 28> H  3.071347	-2.199088	-2.148818
| 29> H  2.684477	-3.582983	-2.857231
| 30> O  -3.986922	1.095003	1.524357
| 31> H  -4.898606	1.443063	1.466077
| 32> H  -3.422901	1.851127	1.933957
| 33> O  0.387259	0.097389	2.284776
| 34> H  -0.079166	0.345441	3.142284
| 35> H  -0.253013	-0.575768	1.873194
| 36> O  -3.085693	-0.884361	3.123602
| 37> H  -2.517843	-1.355558	2.457098
| 38> H  -3.580580	-0.220601	2.555956
| 39> O  -1.379574	0.824546	4.106598
| 40> H  -2.066257	0.112194	3.820882
| 41> H  -1.342943	0.785511	5.082877
| 42> O  1.386586	1.473688	-1.123256
| 43> H  2.061340	1.488357	-1.871341
| 44> H  1.750651	0.749198	-0.511517
| 45> O  -2.335599	2.829203	2.568013
| 46> H  -1.616094	2.825477	1.882000
| 47> H  -1.972887	2.208445	3.268473
| 48> O  -1.361993	-1.502701	1.082608
| 49> H  -0.788099	-2.033559	0.464574
| 50> H  -1.741291	-0.771933	0.485246
| 51> O  -0.393723	2.127239	0.766649
| 52> H  -0.028016	1.400942	1.378316
| 53> H  0.293509	2.198022	0.047268
| 54> O  4.071590	-1.142576	-1.482752
| 55> H  3.592692	-0.927906	-0.638322
| 56> H  3.852072	-0.356592	-2.067905
| 57> O  2.181743	-0.554013	0.401595
| 58> H  1.774983	-0.332078	1.283944
| 59> H  1.526810	-1.218676	-0.004438
| 60> O  0.430668	-2.131811	-0.815149
| 61> H  1.073732	-2.603892	-1.430585
| 62> H  0.050056	-1.404089	-1.411215
| 63> **                         ****END OF INPUT****

CARTESIAN COORDINATES (ANGSTROEM)
---------------------------------
  O      3.073672    0.824351   -3.041152
  H      3.585628    1.355768   -3.682145
  H      2.433587    0.243965   -3.598960
  O     -2.220201    0.551597   -0.357248
  H     -3.058096    0.767288    0.158502
  H     -1.550510    1.213771    0.021938
  O     -0.440292   -0.075332   -2.266484
  H     -1.296865    0.147143   -1.808654
  H      0.221474    0.584314   -1.864973
  O      1.371565   -0.782081   -4.197166
  H      1.691382   -1.609278   -3.727958
  H      0.546152   -0.546572   -3.697110
  O      2.300706   -2.730354   -2.572755
  H      3.071347   -2.199088   -2.148818
  H      2.684477   -3.582983   -2.857231
  O     -3.986922    1.095003    1.524357
  H     -4.898606    1.443063    1.466077
  H     -3.422901    1.851127    1.933957
  O      0.387259    0.097389    2.284776
  H     -0.079166    0.345441    3.142284
  H     -0.253013   -0.575768    1.873194
  O     -3.085693   -0.884361    3.123602
  H     -2.517843   -1.355558    2.457098
  H     -3.580580   -0.220601    2.555956
  O     -1.379574    0.824546    4.106598
  H     -2.066257    0.112194    3.820882
  H     -1.342943    0.785511    5.082877
  O      1.386586    1.473688   -1.123256
  H      2.061340    1.488357   -1.871341
  H      1.750651    0.749198   -0.511517
  O     -2.335599    2.829203    2.568013
  H     -1.616094    2.825477    1.882000
  H     -1.972887    2.208445    3.268473
  O     -1.361993   -1.502701    1.082608
  H     -0.788099   -2.033559    0.464574
  H     -1.741291   -0.771933    0.485246
  O     -0.393723    2.127239    0.766649
  H     -0.028016    1.400942    1.378316
  H      0.293509    2.198022    0.047268
  O      4.071590   -1.142576   -1.482752
  H      3.592692   -0.927906   -0.638322
  H      3.852072   -0.356592   -2.067905
  O      2.181743   -0.554013    0.401595
  H      1.774983   -0.332078    1.283944
  H      1.526810   -1.218676   -0.004438
  O      0.430668   -2.131811   -0.815149
  H      1.073732   -2.603892   -1.430585
  H      0.050056   -1.404089   -1.411215

 Total Charge           Charge          ....    0
 Multiplicity           Mult            ....    1
 Number of Electrons    NEL             ....  160
 Basis Dimension        Dim             ....  688

ORBITAL ENERGIES
----------------

  NO   OCC          E(Eh)            E(eV)
   0   2.0000     -19.241411      -523.5854
   1   2.0000     -19.241314      -523.5828
   2   2.0000     -19.241184      -523.5792
   3   2.0000     -19.240897      -523.5714
   4   2.0000     -19.237113      -523.4685
   5   2.0000     -19.237021      -523.4659
   6   2.0000     -19.237005      -523.4655
   7   2.0000     -19.236701      -523.4572
   8   2.0000     -19.233779      -523.3777
   9   2.0000     -19.233647      -523.3741
  10   2.0000     -19.233625      -523.3735
  11   2.0000     -19.233578      -523.3723
  12   2.0000     -19.233515      -523.3706
  13   2.0000     -19.233156      -523.3608
  14   2.0000     -19.232930      -523.3546
  15   2.0000     -19.232318      -523.3380
  16   2.0000      -1.155272       -31.4365
  17   2.0000      -1.146945       -31.2100
  18   2.0000      -1.136342       -30.9214
  19   2.0000      -1.135146       -30.8889
  20   2.0000      -1.133546       -30.8454
  21   2.0000      -1.128640       -30.7119
  22   2.0000      -1.127403       -30.6782
  23   2.0000      -1.124750       -30.6060
  24   2.0000      -1.117696       -30.4141
  25   2.0000      -1.113798       -30.3080
  26   2.0000      -1.112666       -30.2772
  27   2.0000      -1.107430       -30.1347
  28   2.0000      -1.106466       -30.1085
  29   2.0000      -1.105825       -30.0910
  30   2.0000      -1.096630       -29.8408
  31   2.0000      -1.086892       -29.5758
  32   2.0000      -0.651102       -17.7174
  33   2.0000      -0.650500       -17.7010
  34   2.0000      -0.650192       -17.6926
  35   2.0000      -0.647085       -17.6081
  36   2.0000      -0.643433       -17.5087
  37   2.0000      -0.638586       -17.3768
  38   2.0000      -0.636805       -17.3283
  39   2.0000      -0.632465       -17.2103
  40   2.0000      -0.631077       -17.1725
  41   2.0000      -0.627491       -17.0749
  42   2.0000      -0.624059       -16.9815
  43   2.0000      -0.622852       -16.9487
  44   2.0000      -0.621601       -16.9146
  45   2.0000      -0.617748       -16.8098
  46   2.0000      -0.616972       -16.7887
  47   2.0000      -0.615809       -16.7570
  48   2.0000      -0.580552       -15.7976
  49   2.0000      -0.565968       -15.4008
  50   2.0000      -0.544490       -14.8163
  51   2.0000      -0.539086       -14.6693
  52   2.0000      -0.531234       -14.4556
  53   2.0000      -0.529608       -14.4114
  54   2.0000      -0.522098       -14.2070
  55   2.0000      -0.521891       -14.2014
  56   2.0000      -0.504180       -13.7194
  57   2.0000      -0.501482       -13.6460
  58   2.0000      -0.498779       -13.5725
  59   2.0000      -0.496378       -13.5071
  60   2.0000      -0.480072       -13.0634
  61   2.0000      -0.476612       -12.9693
  62   2.0000      -0.469132       -12.7657
  63   2.0000      -0.450061       -12.2468
  64   2.0000      -0.431195       -11.7334
  65   2.0000      -0.430127       -11.7043
  66   2.0000      -0.428763       -11.6672
  67   2.0000      -0.423903       -11.5350
  68   2.0000      -0.423696       -11.5293
  69   2.0000      -0.423072       -11.5124
  70   2.0000      -0.422665       -11.5013
  71   2.0000      -0.422217       -11.4891
  72   2.0000      -0.419993       -11.4286
  73   2.0000      -0.419709       -11.4209
  74   2.0000      -0.418153       -11.3785
  75   2.0000      -0.418080       -11.3765
  76   2.0000      -0.416383       -11.3304
  77   2.0000      -0.416182       -11.3249
  78   2.0000      -0.413676       -11.2567
  79   2.0000      -0.412382       -11.2215
  80   0.0000       0.091166         2.4808
  81   0.0000       0.114360         3.1119
  82   0.0000       0.145063         3.9474
  83   0.0000       0.145325         3.9545
  84   0.0000       0.151193         4.1142

MULLIKEN ATOMIC CHARGES
-----------------------
   0 O :   -0.783944
   1 H :    0.409622
   2 H :    0.382801
   3 O :   -0.793644
   4 H :    0.402198
   5 H :    0.363365
   6 O :   -0.787711
   7 H :    0.414359
   8 H :    0.364993
   9 O :   -0.757241
  10 H :    0.383651
  11 H :    0.398314
  12 O :   -0.782883
  13 H :    0.381612
  14 H :    0.409569
  15 O :   -0.782430
  16 H :    0.409199
  17 H :    0.381460
  18 O :   -0.793715
  19 H :    0.401603
  20 H :    0.363708
  21 O :   -0.755951
  22 H :    0.399852
  23 H :    0.383153
  24 O :   -0.784026
  25 H :    0.381077
  26 H :    0.409040
  27 O :   -0.793973
  28 H :    0.402615
  29 H :    0.367622
  30 O :   -0.757858
  31 H :    0.400244
  32 H :    0.382814
  33 O :   -0.788186
  34 H :    0.415228
  35 H :    0.368306
  36 O :   -0.790666
  37 H :    0.369619
  38 H :    0.415900
  39 O :   -0.758532
  40 H :    0.398845
  41 H :    0.381746
  42 O :   -0.787896
  43 H :    0.414941
  44 H :    0.365121
  45 O :   -0.792375
  46 H :    0.401770
  47 H :    0.366685
Sum of atomic charges:   -0.0000000

LOEWDIN ATOMIC CHARGES
----------------------
   0 O :   -0.291360
   1 H :    0.191539
   2 H :    0.151790
   3 O :   -0.320855
   4 H :    0.152175
   5 H :    0.140913
   6 O :   -0.314008
   7 H :    0.159183
   8 H :    0.141864
   9 O :   -0.317114
  10 H :    0.150208
  11 H :    0.156034
  12 O :   -0.290380
  13 H :    0.152214
  14 H :    0.191680
  15 O :   -0.292092
  16 H :    0.191582
  17 H :    0.151559
  18 O :   -0.321601
  19 H :    0.152536
  20 H :    0.141079
  21 O :   -0.316466
  22 H :    0.157145
  23 H :    0.150712
  24 O :   -0.294771
  25 H :    0.150916
  26 H :    0.191115
  27 O :   -0.320961
  28 H :    0.152693
  29 H :    0.141219
  30 O :   -0.318395
  31 H :    0.156169
  32 H :    0.150759
  33 O :   -0.312580
  34 H :    0.159920
  35 H :    0.142223
  36 O :   -0.314179
  37 H :    0.142441
  38 H :    0.159107
  39 O :   -0.321021
  40 H :    0.155553
  41 H :    0.149312
  42 O :   -0.311575
  43 H :    0.159312
  44 H :    0.142285
  45 O :   -0.321066
  46 H :    0.152081
  47 H :    0.141106

  Mayer bond orders larger than 0.1
B(  0-O ,  1-H ) :   0.8354 B(  0-O ,  2-H ) :   0.7323 B(  0-O , 28-H ) :   0.1183
B(  0-O , 41-H ) :   0.1121 B(  2-H ,  9-O ) :   0.1661 B(  3-O ,  4-H ) :   0.7665
B(  3-O ,  5-H ) :   0.7568 B(  3-O , 35-H ) :   0.1548 B(  4-H , 15-O ) :   0.1196
B(  5-H , 36-O ) :   0.1507 B(  6-O ,  7-H ) :   0.7910 B(  6-O ,  8-H ) :   0.7527
B(  6-O , 47-H ) :   0.1490 B(  8-H , 27-O ) :   0.1556 B(  9-O , 10-H ) :   0.7892
B(  9-O , 11-H ) :   0.8114 B( 10-H , 12-O ) :   0.1101 B( 12-O , 13-H ) :   0.7338
B( 12-O , 14-H ) :   0.8355 B( 12-O , 46-H ) :   0.1188 B( 13-H , 39-O ) :   0.1659
B( 15-O , 16-H ) :   0.8357 B( 15-O , 17-H ) :   0.7335 B( 15-O , 23-H ) :   0.1097
B( 17-H , 30-O ) :   0.1658 B( 18-O , 19-H ) :   0.7674 B( 18-O , 20-H ) :   0.7562
B( 18-O , 37-H ) :   0.1534 B( 19-H , 24-O ) :   0.1188 B( 20-H , 33-O ) :   0.1508
B( 21-O , 22-H ) :   0.8107 B( 21-O , 23-H ) :   0.7897 B( 21-O , 25-H ) :   0.1676
B( 24-O , 25-H ) :   0.7319 B( 24-O , 26-H ) :   0.8359 B( 24-O , 32-H ) :   0.1098
B( 27-O , 28-H ) :   0.7668 B( 27-O , 29-H ) :   0.7561 B( 29-H , 42-O ) :   0.1498
B( 30-O , 31-H ) :   0.8101 B( 30-O , 32-H ) :   0.7901 B( 33-O , 34-H ) :   0.7912
B( 33-O , 35-H ) :   0.7519 B( 36-O , 37-H ) :   0.7519 B( 36-O , 38-H ) :   0.7885
B( 39-O , 40-H ) :   0.8101 B( 39-O , 41-H ) :   0.7896 B( 42-O , 43-H ) :   0.7900
B( 42-O , 44-H ) :   0.7517 B( 44-H , 45-O ) :   0.1562 B( 45-O , 46-H ) :   0.7674
B( 45-O , 47-H ) :   0.7581

Dispersion correction           -0.033030736
FINAL SINGLE POINT ENERGY     -1223.339720253332

DIPOLE MOMENT
-------------
                                X             Y             Z
Electronic contribution:     -0.00880      -0.01063      -0.00689
Nuclear contribution   :     -0.00238      -0.04838      -0.00255
                        -----------------------------------------
Total Dipole Moment    :     -0.01118      -0.05900      -0.00943
                        -----------------------------------------
Magnitude (a.u.)       :      0.06079
Magnitude (Debye)      :      0.15451

                             ****ORCA TERMINATED NORMALLY****
TOTAL RUN TIME: 0 days 0 hours 2 minutes 12 seconds 2 msec
