                         Program Version 3.0.3 - RELEASE   -
|  1> ! wB97X-D3 MA-Def2-TZVP def2-TZVP/J RIJCOSX TightSCF Grid4
|  2>
|  3> %pal nprocs 1 end
|  4>
|  5> %scf
|  6>         maxiter 400
|  7> end
|  8>
|  9> * xyz  0  1
| 10> O  3.069307	0.853997	-3.052739
| 11> H  3.569637	1.357390	-3.720591
| 12> H  2.411056	0.237346	-3.584059
| 13> O  -2.207613	0.533820	-0.375330
| 14> H  -3.058659	0.761286	0.100572
| 15> H  -1.547974	1.205259	0.010676
| 16> O  -0.430829	-0.099117	-2.265419
| 17> H  -1.303720	0.131392	-1.843630
| 18> H  0.216715	0.575608	-1.866213
| 19> O  1.401540	-0.744474	-4.153757
| 20> H  1.682672	-1.599812	-3.720257
| 21> H  0.546173	-0.526820	-3.694459
| 22> O  2.299488	-2.764341	-2.557466
| 23> H  3.057637	-2.188300	-2.123140
| 24> H  2.718773	-3.595160	-2.846242
| 25> O  -3.993759	1.127441	1.503420
| 26> H  -4.891563	1.506125	1.477407
| 27> H  -3.381897	1.860928	1.932287
| 28> O  0.404903	0.109972	2.262593
| 29> H  -0.024555	0.335073	3.138784
| 30> H  -0.241918	-0.566151	1.862063
| 31> O  -3.058696	-0.855747	3.117800
| 32> H  -2.516234	-1.358521	2.450996
| 33> H  -3.583357	-0.223920	2.547424
| 34> O  -1.370956	0.780724	4.127829
| 35> H  -2.072438	0.078218	3.792437
| 36> H  -1.377544	0.725123	5.101100
| 37> O  1.362027	1.481580	-1.116185
| 38> H  2.045304	1.539099	-1.846223
| 39> H  1.742769	0.761240	-0.506386
| 40> O  -2.340671	2.777833	2.548060
| 41> H  -1.607470	2.825782	1.875973
| 42> H  -1.953442	2.197892	3.264759
| 43> O  -1.355894	-1.492585	1.103591
| 44> H  -0.802224	-2.051136	0.491288
| 45> H  -1.734008	-0.774090	0.490583
| 46> O  -0.417566	2.126688	0.754668
| 47> H  -0.035655	1.407427	1.364393
| 48> H  0.278268	2.235417	0.048184
| 49> O  4.012234	-1.179456	-1.502661
| 50> H  3.584421	-0.939643	-0.636251
| 51> H  3.851751	-0.368565	-2.065005
| 52> O  2.192484	-0.527508	0.391845
| 53> H  1.815059	-0.315788	1.289938
| 54> H  1.537071	-1.201982	0.003922
| 55> O  0.427312	-2.120195	-0.783322
| 56> H  1.030544	-2.635811	-1.393942
| 57> H  0.048012	-1.402297	-1.395664
| 58> **                         ****END OF INPUT****

CARTESIAN COORDINATES (ANGSTROEM)
---------------------------------
  O      3.069307    0.853997   -3.052739
  H      3.569637    1.357390   -3.720591
  H      2.411056    0.237346   -3.584059
  O     -2.207613    0.533820   -0.375330
  H     -3.058659    0.761286    0.100572
  H     -1.547974    1.205259    0.010676
  O     -0.430829   -0.099117   -2.265419
  H     -1.303720    0.131392   -1.843630
  H      0.216715    0.575608   -1.866213
  O      1.401540   -0.744474   -4.153757
  H      1.682672   -1.599812   -3.720257
  H      0.546173   -0.526820   -3.694459
  O      2.299488   -2.764341   -2.557466
  H      3.057637   -2.188300   -2.123140
  H      2.718773   -3.595160   -2.846242
  O     -3.993759    1.127441    1.503420
  H     -4.891563    1.506125    1.477407
  H     -3.381897    1.860928    1.932287
  O      0.404903    0.109972    2.262593
  H     -0.024555    0.335073    3.138784
  H     -0.241918   -0.566151    1.862063
  O     -3.058696   -0.855747    3.117800
  H     -2.516234   -1.358521    2.450996
  H     -3.583357   -0.223920    2.547424
  O     -1.370956    0.780724    4.127829
  H     -2.072438    0.078218    3.792437
  H     -1.377544    0.725123    5.101100
  O      1.362027    1.481580   -1.116185
  H      2.045304    1.539099   -1.846223
  H      1.742769    0.761240   -0.506386
  O     -2.340671    2.777833    2.548060
  H     -1.607470    2.825782    1.875973
  H     -1.953442    2.197892    3.264759
  O     -1.355894   -1.492585    1.103591
  H     -0.802224   -2.051136    0.491288
  H     -1.734008   -0.774090    0.490583
  O     -0.417566    2.126688    0.754668
  H     -0.035655    1.407427    1.364393
  H      0.278268    2.235417    0.048184
  O      4.012234   -1.179456   -1.502661
  H      3.584421   -0.939643   -0.636251
  H      3.851751   -0.368565   -2.065005
  O      2.192484   -0.527508    0.391845
  H      1.815059   -0.315788    1.289938
  H      1.537071   -1.201982    0.003922
  O      0.427312   -2.120195   -0.783322
  H      1.030544   -2.635811   -1.393942
  H      0.048012   -1.402297   -1.395664

 Total Charge           Charge          ....    0
 Multiplicity           Mult            ....    1
 Number of Electrons    NEL             ....  160
 Basis Dimension        Dim             ....  752

ORBITAL ENERGIES
----------------

  NO   OCC          E(Eh)            E(eV)
   0   2.0000     -19.253953      -523.9267
   1   2.0000     -19.253932      -523.9261
   2   2.0000     -19.253753      -523.9213
   3   2.0000     -19.253517      -523.9148
   4   2.0000     -19.242012      -523.6018
   5   2.0000     -19.241878      -523.5981
   6   2.0000     -19.241644      -523.5917
   7   2.0000     -19.241116      -523.5774
   8   2.0000     -19.240529      -523.5614
   9   2.0000     -19.240492      -523.5604
  10   2.0000     -19.240272      -523.5544
  11   2.0000     -19.240169      -523.5516
  12   2.0000     -19.238155      -523.4968
  13   2.0000     -19.238017      -523.4930
  14   2.0000     -19.237795      -523.4870
  15   2.0000     -19.237589      -523.4814
  16   2.0000      -1.162197       -31.6250
  17   2.0000      -1.155452       -31.4414
  18   2.0000      -1.145042       -31.1582
  19   2.0000      -1.143435       -31.1144
  20   2.0000      -1.141522       -31.0624
  21   2.0000      -1.136470       -30.9249
  22   2.0000      -1.134345       -30.8671
  23   2.0000      -1.131309       -30.7845
  24   2.0000      -1.124939       -30.6112
  25   2.0000      -1.119504       -30.4632
  26   2.0000      -1.118596       -30.4386
  27   2.0000      -1.114022       -30.3141
  28   2.0000      -1.112918       -30.2840
  29   2.0000      -1.111778       -30.2530
  30   2.0000      -1.103335       -30.0233
  31   2.0000      -1.092882       -29.7388
  32   2.0000      -0.660904       -17.9841
  33   2.0000      -0.659252       -17.9392
  34   2.0000      -0.658114       -17.9082
  35   2.0000      -0.655928       -17.8487
  36   2.0000      -0.654780       -17.8175
  37   2.0000      -0.648779       -17.6542
  38   2.0000      -0.647993       -17.6328
  39   2.0000      -0.645186       -17.5564
  40   2.0000      -0.638218       -17.3668
  41   2.0000      -0.635921       -17.3043
  42   2.0000      -0.631153       -17.1745
  43   2.0000      -0.630331       -17.1522
  44   2.0000      -0.629324       -17.1248
  45   2.0000      -0.624291       -16.9878
  46   2.0000      -0.622380       -16.9358
  47   2.0000      -0.620845       -16.8941
  48   2.0000      -0.587903       -15.9977
  49   2.0000      -0.574715       -15.6388
  50   2.0000      -0.549093       -14.9416
  51   2.0000      -0.545169       -14.8348
  52   2.0000      -0.540095       -14.6967
  53   2.0000      -0.532348       -14.4859
  54   2.0000      -0.529885       -14.4189
  55   2.0000      -0.524881       -14.2827
  56   2.0000      -0.508859       -13.8468
  57   2.0000      -0.507175       -13.8009
  58   2.0000      -0.505296       -13.7498
  59   2.0000      -0.503699       -13.7064
  60   2.0000      -0.484167       -13.1749
  61   2.0000      -0.482771       -13.1369
  62   2.0000      -0.471897       -12.8410
  63   2.0000      -0.450832       -12.2678
  64   2.0000      -0.439309       -11.9542
  65   2.0000      -0.437585       -11.9073
  66   2.0000      -0.436673       -11.8825
  67   2.0000      -0.432795       -11.7770
  68   2.0000      -0.431162       -11.7325
  69   2.0000      -0.429123       -11.6770
  70   2.0000      -0.427927       -11.6445
  71   2.0000      -0.425802       -11.5867
  72   2.0000      -0.423989       -11.5373
  73   2.0000      -0.423596       -11.5266
  74   2.0000      -0.422079       -11.4854
  75   2.0000      -0.419959       -11.4277
  76   2.0000      -0.418704       -11.3935
  77   2.0000      -0.418384       -11.3848
  78   2.0000      -0.417822       -11.3695
  79   2.0000      -0.416274       -11.3274
  80   0.0000       0.052052         1.4164
  81   0.0000       0.059815         1.6276
  82   0.0000       0.074633         2.0309
  83   0.0000       0.075054         2.0423
  84   0.0000       0.091406         2.4873

MULLIKEN ATOMIC CHARGES
-----------------------
   0 O :   -0.854418
   1 H :    0.362010
   2 H :    0.425030
   3 O :   -0.869870
   4 H :    0.432567
   5 H :    0.419238
   6 O :   -0.891791
   7 H :    0.447754
   8 H :    0.426085
   9 O :   -0.753858
  10 H :    0.416792
  11 H :    0.429426
  12 O :   -0.856146
  13 H :    0.426078
  14 H :    0.362150
  15 O :   -0.841656
  16 H :    0.361239
  17 H :    0.422684
  18 O :   -0.866855
  19 H :    0.432698
  20 H :    0.417313
  21 O :   -0.757068
  22 H :    0.430351
  23 H :    0.418338
  24 O :   -0.842895
  25 H :    0.422196
  26 H :    0.361360
  27 O :   -0.861838
  28 H :    0.429418
  29 H :    0.426756
  30 O :   -0.760834
  31 H :    0.432087
  32 H :    0.418927
  33 O :   -0.887127
  34 H :    0.446376
  35 H :    0.428281
  36 O :   -0.892247
  37 H :    0.430503
  38 H :    0.448607
  39 O :   -0.754943
  40 H :    0.429626
  41 H :    0.417610
  42 O :   -0.897573
  43 H :    0.448089
  44 H :    0.427125
  45 O :   -0.862261
  46 H :    0.428446
  47 H :    0.426223
Sum of atomic charges:   -0.0000000

LOEWDIN ATOMIC CHARGES
----------------------
   0 O :   -0.416237
   1 H :    0.195423
   2 H :    0.195348
   3 O :   -0.415943
   4 H :    0.202015
   5 H :    0.195318
   6 O :   -0.410253
   7 H :    0.209088
   8 H :    0.196050
   9 O :   -0.356877
  10 H :    0.200122
  11 H :    0.206048
  12 O :   -0.416563
  13 H :    0.195613
  14 H :    0.195393
  15 O :   -0.416285
  16 H :    0.195501
  17 H :    0.194688
  18 O :   -0.415961
  19 H :    0.202680
  20 H :    0.195387
  21 O :   -0.357178
  22 H :    0.206564
  23 H :    0.201090
  24 O :   -0.417954
  25 H :    0.194777
  26 H :    0.195427
  27 O :   -0.415972
  28 H :    0.202604
  29 H :    0.195565
  30 O :   -0.357883
  31 H :    0.206248
  32 H :    0.201417
  33 O :   -0.410184
  34 H :    0.209319
  35 H :    0.196219
  36 O :   -0.411042
  37 H :    0.196134
  38 H :    0.209093
  39 O :   -0.358359
  40 H :    0.205730
  41 H :    0.200133
  42 O :   -0.409785
  43 H :    0.209097
  44 H :    0.196415
  45 O :   -0.416070
  46 H :    0.202415
  47 H :    0.195629

  Mayer bond orders larger than 0.1
B(  0-O ,  1-H ) :   0.8691 B(  0-O ,  2-H ) :   0.7117 B(  2-H ,  9-O ) :   0.1573
B(  3-O ,  4-H ) :   0.8028 B(  3-O ,  5-H ) :   0.7851 B(  6-O ,  7-H ) :   0.8044
B(  6-O ,  8-H ) :   0.7844 B(  9-O , 10-H ) :   0.8360 B(  9-O , 11-H ) :   0.8226
B( 12-O , 13-H ) :   0.7121 B( 12-O , 14-H ) :   0.8691 B( 13-H , 39-O ) :   0.1560
B( 15-O , 16-H ) :   0.8703 B( 15-O , 17-H ) :   0.7110 B( 17-H , 30-O ) :   0.1600
B( 18-O , 19-H ) :   0.8024 B( 18-O , 20-H ) :   0.7844 B( 21-O , 22-H ) :   0.8221
B( 21-O , 23-H ) :   0.8339 B( 21-O , 25-H ) :   0.1605 B( 24-O , 25-H ) :   0.7105
B( 24-O , 26-H ) :   0.8704 B( 27-O , 28-H ) :   0.8006 B( 27-O , 29-H ) :   0.7854
B( 30-O , 31-H ) :   0.8201 B( 30-O , 32-H ) :   0.8346 B( 33-O , 34-H ) :   0.8053
B( 33-O , 35-H ) :   0.7818 B( 36-O , 37-H ) :   0.7826 B( 36-O , 38-H ) :   0.8022
B( 39-O , 40-H ) :   0.8220 B( 39-O , 41-H ) :   0.8353 B( 42-O , 43-H ) :   0.8034
B( 42-O , 44-H ) :   0.7836 B( 45-O , 46-H ) :   0.8021 B( 45-O , 47-H ) :   0.7858

Dispersion correction           -0.033088118
FINAL SINGLE POINT ENERGY     -1223.306749753549

DIPOLE MOMENT
-------------
                                X             Y             Z
Electronic contribution:     -0.00565       0.00334      -0.00070
Nuclear contribution   :      0.01380      -0.02052      -0.00427
                        -----------------------------------------
Total Dipole Moment    :      0.00816      -0.01718      -0.00497
                        -----------------------------------------
Magnitude (a.u.)       :      0.01966
Magnitude (Debye)      :      0.04997

                             ****ORCA TERMINATED NORMALLY****
TOTAL RUN TIME: 0 days 0 hours 29 minutes 26 seconds 625 msec
