                         Program Version 3.0.3 - RELEASE   -
|  1> ! wB97X-D3 Def2-TZVP def2-TZVP/J RIJCOSX TightSCF Grid4
|  2>
|  3> %pal nprocs 12 end
|  4>
|  5> %scf
|  6>         maxiter 400
|  7> end
|  8>
|  9> * xyz  0  1
| 10> O  3.144639	0.980698	-3.257557
| 11> H  3.535813	1.520479	-3.956218
| 12> H  2.486827	0.348655	-3.702335
| 13> O  -2.294257	0.522772	-0.389607
| 14> H  -3.128685	0.828008	0.034533
| 15> H  -1.606211	1.137700	-0.016561
| 16> O  -0.491374	-0.176466	-2.290602
| 17> H  -1.355761	0.092799	-1.911368
| 18> H  0.160267	0.473183	-1.914446
| 19> O  1.431824	-0.755185	-4.139678
| 20> H  1.732458	-1.563946	-3.666532
| 21> H  0.561680	-0.558190	-3.732416
| 22> O  2.411430	-2.670969	-2.408816
| 23> H  3.153059	-2.058809	-2.092527
| 24> H  2.853656	-3.483789	-2.689378
| 25> O  -4.084437	1.300250	1.479433
| 26> H  -4.929551	1.770224	1.478053
| 27> H  -3.417075	1.926029	1.916507
| 28> O  0.409647	-0.050294	2.282317
| 29> H  0.029686	0.203269	3.154155
| 30> H  -0.276392	-0.672399	1.917896
| 31> O  -3.276642	-0.738233	3.175467
| 32> H  -2.788046	-1.292713	2.531654
| 33> H  -3.762193	-0.096864	2.610522
| 34> O  -1.359961	0.680472	4.213780
| 35> H  -2.127217	0.097877	3.897155
| 36> H  -1.414893	0.707577	5.178073
| 37> O  1.426046	1.355225	-1.207432
| 38> H  2.088625	1.482034	-1.924443
| 39> H  1.821421	0.675778	-0.598027
| 40> O  -2.214205	2.727879	2.587048
| 41> H  -1.502345	2.764145	1.913649
| 42> H  -1.850568	2.142084	3.288775
| 43> O  -1.556637	-1.528098	1.175053
| 44> H  -1.024485	-2.122209	0.605983
| 45> H  -1.895415	-0.834577	0.545969
| 46> O  -0.349019	1.984309	0.726075
| 47> H  0.018852	1.282282	1.328080
| 48> H  0.328508	2.099583	0.024534
| 49> O  4.203232	-0.944969	-1.614554
| 50> H  3.788621	-0.722202	-0.755776
| 51> H  4.022102	-0.172658	-2.194558
| 52> O  2.276435	-0.626468	0.375388
| 53> H  1.933077	-0.390362	1.264048
| 54> H  1.594525	-1.270560	0.046049
| 55> O  0.338550	-2.187373	-0.698198
| 56> H  0.983016	-2.672742	-1.257913
| 57> H  -0.032114	-1.511996	-1.327602
| 58> **                         ****END OF INPUT****

CARTESIAN COORDINATES (ANGSTROEM)
---------------------------------
  O      3.144639    0.980698   -3.257557
  H      3.535813    1.520479   -3.956218
  H      2.486827    0.348655   -3.702335
  O     -2.294257    0.522772   -0.389607
  H     -3.128685    0.828008    0.034533
  H     -1.606211    1.137700   -0.016561
  O     -0.491374   -0.176466   -2.290602
  H     -1.355761    0.092799   -1.911368
  H      0.160267    0.473183   -1.914446
  O      1.431824   -0.755185   -4.139678
  H      1.732458   -1.563946   -3.666532
  H      0.561680   -0.558190   -3.732416
  O      2.411430   -2.670969   -2.408816
  H      3.153059   -2.058809   -2.092527
  H      2.853656   -3.483789   -2.689378
  O     -4.084437    1.300250    1.479433
  H     -4.929551    1.770224    1.478053
  H     -3.417075    1.926029    1.916507
  O      0.409647   -0.050294    2.282317
  H      0.029686    0.203269    3.154155
  H     -0.276392   -0.672399    1.917896
  O     -3.276642   -0.738233    3.175467
  H     -2.788046   -1.292713    2.531654
  H     -3.762193   -0.096864    2.610522
  O     -1.359961    0.680472    4.213780
  H     -2.127217    0.097877    3.897155
  H     -1.414893    0.707577    5.178073
  O      1.426046    1.355225   -1.207432
  H      2.088625    1.482034   -1.924443
  H      1.821421    0.675778   -0.598027
  O     -2.214205    2.727879    2.587048
  H     -1.502345    2.764145    1.913649
  H     -1.850568    2.142084    3.288775
  O     -1.556637   -1.528098    1.175053
  H     -1.024485   -2.122209    0.605983
  H     -1.895415   -0.834577    0.545969
  O     -0.349019    1.984309    0.726075
  H      0.018852    1.282282    1.328080
  H      0.328508    2.099583    0.024534
  O      4.203232   -0.944969   -1.614554
  H      3.788621   -0.722202   -0.755776
  H      4.022102   -0.172658   -2.194558
  O      2.276435   -0.626468    0.375388
  H      1.933077   -0.390362    1.264048
  H      1.594525   -1.270560    0.046049
  O      0.338550   -2.187373   -0.698198
  H      0.983016   -2.672742   -1.257913
  H     -0.032114   -1.511996   -1.327602

 Total Charge           Charge          ....    0
 Multiplicity           Mult            ....    1
 Number of Electrons    NEL             ....  160
 Basis Dimension        Dim             ....  688

ORBITAL ENERGIES
----------------

  NO   OCC          E(Eh)            E(eV)
   0   2.0000     -19.250671      -523.8374
   1   2.0000     -19.250269      -523.8264
   2   2.0000     -19.249689      -523.8107
   3   2.0000     -19.249229      -523.7981
   4   2.0000     -19.240478      -523.5600
   5   2.0000     -19.239105      -523.5227
   6   2.0000     -19.238479      -523.5056
   7   2.0000     -19.238426      -523.5042
   8   2.0000     -19.238272      -523.5000
   9   2.0000     -19.237526      -523.4797
  10   2.0000     -19.236378      -523.4485
  11   2.0000     -19.236374      -523.4484
  12   2.0000     -19.232545      -523.3442
  13   2.0000     -19.231068      -523.3040
  14   2.0000     -19.230474      -523.2878
  15   2.0000     -19.230256      -523.2819
  16   2.0000      -1.160490       -31.5785
  17   2.0000      -1.154360       -31.4117
  18   2.0000      -1.145613       -31.1737
  19   2.0000      -1.144332       -31.1389
  20   2.0000      -1.143132       -31.1062
  21   2.0000      -1.137391       -30.9500
  22   2.0000      -1.136908       -30.9368
  23   2.0000      -1.133796       -30.8522
  24   2.0000      -1.126364       -30.6499
  25   2.0000      -1.122260       -30.5382
  26   2.0000      -1.121341       -30.5132
  27   2.0000      -1.118017       -30.4228
  28   2.0000      -1.116151       -30.3720
  29   2.0000      -1.115506       -30.3545
  30   2.0000      -1.108119       -30.1535
  31   2.0000      -1.100667       -29.9507
  32   2.0000      -0.665638       -18.1129
  33   2.0000      -0.658665       -17.9232
  34   2.0000      -0.657445       -17.8900
  35   2.0000      -0.654874       -17.8200
  36   2.0000      -0.652977       -17.7684
  37   2.0000      -0.650552       -17.7024
  38   2.0000      -0.646859       -17.6019
  39   2.0000      -0.644066       -17.5259
  40   2.0000      -0.639627       -17.4051
  41   2.0000      -0.639043       -17.3892
  42   2.0000      -0.634018       -17.2525
  43   2.0000      -0.632504       -17.2113
  44   2.0000      -0.631493       -17.1838
  45   2.0000      -0.627754       -17.0821
  46   2.0000      -0.622463       -16.9381
  47   2.0000      -0.621805       -16.9202
  48   2.0000      -0.579611       -15.7720
  49   2.0000      -0.565363       -15.3843
  50   2.0000      -0.545177       -14.8350
  51   2.0000      -0.542347       -14.7580
  52   2.0000      -0.534719       -14.5504
  53   2.0000      -0.527159       -14.3447
  54   2.0000      -0.525747       -14.3063
  55   2.0000      -0.518041       -14.0966
  56   2.0000      -0.507683       -13.8148
  57   2.0000      -0.503760       -13.7080
  58   2.0000      -0.502113       -13.6632
  59   2.0000      -0.497820       -13.5464
  60   2.0000      -0.483426       -13.1547
  61   2.0000      -0.482328       -13.1248
  62   2.0000      -0.470301       -12.7975
  63   2.0000      -0.451914       -12.2972
  64   2.0000      -0.439399       -11.9566
  65   2.0000      -0.438228       -11.9248
  66   2.0000      -0.435999       -11.8641
  67   2.0000      -0.433845       -11.8055
  68   2.0000      -0.432124       -11.7587
  69   2.0000      -0.428335       -11.6556
  70   2.0000      -0.427799       -11.6410
  71   2.0000      -0.425765       -11.5857
  72   2.0000      -0.424238       -11.5441
  73   2.0000      -0.423553       -11.5255
  74   2.0000      -0.421692       -11.4748
  75   2.0000      -0.418341       -11.3836
  76   2.0000      -0.417684       -11.3658
  77   2.0000      -0.416990       -11.3469
  78   2.0000      -0.415763       -11.3135
  79   2.0000      -0.415327       -11.3016
  80   0.0000       0.079898         2.1741
  81   0.0000       0.096124         2.6157
  82   0.0000       0.117983         3.2105
  83   0.0000       0.118396         3.2217
  84   0.0000       0.131460         3.5772

MULLIKEN ATOMIC CHARGES
-----------------------
   0 O :   -0.758602
   1 H :    0.353718
   2 H :    0.378322
   3 O :   -0.745832
   4 H :    0.379722
   5 H :    0.348753
   6 O :   -0.744680
   7 H :    0.390755
   8 H :    0.350875
   9 O :   -0.697335
  10 H :    0.356616
  11 H :    0.383543
  12 O :   -0.754411
  13 H :    0.367409
  14 H :    0.354621
  15 O :   -0.753002
  16 H :    0.351848
  17 H :    0.371650
  18 O :   -0.745885
  19 H :    0.383426
  20 H :    0.354216
  21 O :   -0.692918
  22 H :    0.382299
  23 H :    0.360325
  24 O :   -0.756197
  25 H :    0.372783
  26 H :    0.354024
  27 O :   -0.754852
  28 H :    0.382765
  29 H :    0.344118
  30 O :   -0.698352
  31 H :    0.383903
  32 H :    0.357382
  33 O :   -0.744951
  34 H :    0.389257
  35 H :    0.355018
  36 O :   -0.751975
  37 H :    0.347992
  38 H :    0.395937
  39 O :   -0.687532
  40 H :    0.375454
  41 H :    0.365882
  42 O :   -0.737169
  43 H :    0.392367
  44 H :    0.349673
  45 O :   -0.742282
  46 H :    0.374403
  47 H :    0.356918
Sum of atomic charges:   -0.0000000

LOEWDIN ATOMIC CHARGES
----------------------
   0 O :   -0.302275
   1 H :    0.160758
   2 H :    0.140353
   3 O :   -0.294796
   4 H :    0.145849
   5 H :    0.131694
   6 O :   -0.289483
   7 H :    0.152825
   8 H :    0.132435
   9 O :   -0.271854
  10 H :    0.141172
  11 H :    0.150307
  12 O :   -0.303083
  13 H :    0.139391
  14 H :    0.161418
  15 O :   -0.304857
  16 H :    0.160585
  17 H :    0.138669
  18 O :   -0.292712
  19 H :    0.148271
  20 H :    0.136214
  21 O :   -0.269892
  22 H :    0.151069
  23 H :    0.143261
  24 O :   -0.303250
  25 H :    0.139777
  26 H :    0.160484
  27 O :   -0.292458
  28 H :    0.143311
  29 H :    0.130353
  30 O :   -0.273659
  31 H :    0.148940
  32 H :    0.140056
  33 O :   -0.289142
  34 H :    0.154799
  35 H :    0.134876
  36 O :   -0.288313
  37 H :    0.131657
  38 H :    0.150476
  39 O :   -0.268879
  40 H :    0.149927
  41 H :    0.141229
  42 O :   -0.288341
  43 H :    0.154988
  44 H :    0.136944
  45 O :   -0.299795
  46 H :    0.145591
  47 H :    0.135106

  Mayer bond orders larger than 0.1
B(  0-O ,  1-H ) :   0.8801 B(  0-O ,  2-H ) :   0.7337 B(  2-H ,  9-O ) :   0.1714
B(  3-O ,  4-H ) :   0.8142 B(  3-O ,  5-H ) :   0.7810 B(  3-O , 35-H ) :   0.1392
B(  5-H , 36-O ) :   0.1374 B(  6-O ,  7-H ) :   0.8182 B(  6-O ,  8-H ) :   0.7854
B(  6-O , 47-H ) :   0.1354 B(  8-H , 27-O ) :   0.1306 B(  9-O , 10-H ) :   0.8277
B(  9-O , 11-H ) :   0.8261 B( 12-O , 13-H ) :   0.7352 B( 12-O , 14-H ) :   0.8809
B( 13-H , 39-O ) :   0.1823 B( 15-O , 16-H ) :   0.8819 B( 15-O , 17-H ) :   0.7367
B( 17-H , 30-O ) :   0.1721 B( 18-O , 19-H ) :   0.8171 B( 18-O , 20-H ) :   0.7814
B( 18-O , 37-H ) :   0.1467 B( 20-H , 33-O ) :   0.1407 B( 21-O , 22-H ) :   0.8311
B( 21-O , 23-H ) :   0.8291 B( 21-O , 25-H ) :   0.1771 B( 24-O , 25-H ) :   0.7342
B( 24-O , 26-H ) :   0.8804 B( 27-O , 28-H ) :   0.8054 B( 27-O , 29-H ) :   0.7768
B( 29-H , 42-O ) :   0.1476 B( 30-O , 31-H ) :   0.8275 B( 30-O , 32-H ) :   0.8244
B( 33-O , 34-H ) :   0.8261 B( 33-O , 35-H ) :   0.7793 B( 36-O , 37-H ) :   0.7763
B( 36-O , 38-H ) :   0.8117 B( 39-O , 40-H ) :   0.8403 B( 39-O , 41-H ) :   0.8248
B( 42-O , 43-H ) :   0.8229 B( 42-O , 44-H ) :   0.7868 B( 44-H , 45-O ) :   0.1418
B( 45-O , 46-H ) :   0.8269 B( 45-O , 47-H ) :   0.7828

Dispersion correction           -0.032081162
FINAL SINGLE POINT ENERGY     -1223.320782374087

DIPOLE MOMENT
-------------
                                X             Y             Z
Electronic contribution:      0.03953      -0.08236       0.00584
Nuclear contribution   :     -0.04104       0.31679      -0.01723
                        -----------------------------------------
Total Dipole Moment    :     -0.00151       0.23443      -0.01138
                        -----------------------------------------
Magnitude (a.u.)       :      0.23471
Magnitude (Debye)      :      0.59659

                             ****ORCA TERMINATED NORMALLY****
TOTAL RUN TIME: 0 days 0 hours 2 minutes 2 seconds 557 msec
