                         Program Version 3.0.3 - RELEASE   -
|  1> ! B3LYP Def2-TZVP def2-TZVP/J RIJCOSX TightSCF Grid4 D3BJ COSMO
|  2>
|  3> %pal nprocs 12 end
|  4>
|  5> %scf
|  6>         maxiter 400
|  7> end
|  8>
|  9> %cosmo
| 10>         SMD true
| 11>         solvent "WATER"
| 12> end
| 13>
| 14> * xyz  0  1
| 15> O  3.183806	1.014486	-3.235595
| 16> H  3.532059	1.625876	-3.901870
| 17> H  2.547821	0.404124	-3.712279
| 18> O  -2.296409	0.521909	-0.332394
| 19> H  -3.105492	0.814619	0.154542
| 20> H  -1.593007	1.129360	0.021874
| 21> O  -0.502942	-0.225540	-2.262015
| 22> H  -1.355586	0.045672	-1.859892
| 23> H  0.156838	0.421181	-1.892365
| 24> O  1.450762	-0.772682	-4.148498
| 25> H  1.782832	-1.549016	-3.635101
| 26> H  0.600658	-0.563819	-3.709023
| 27> O  2.426544	-2.642097	-2.419339
| 28> H  3.183598	-2.062888	-2.114213
| 29> H  2.843542	-3.449128	-2.758961
| 30> O  -4.028157	1.304058	1.557656
| 31> H  -4.898445	1.728571	1.499801
| 32> H  -3.417081	1.993097	1.950446
| 33> O  0.373310	-0.081914	2.286787
| 34> H  -0.056048	0.221791	3.123375
| 35> H  -0.300896	-0.709939	1.913997
| 36> O  -3.364357	-0.795228	3.171881
| 37> H  -2.821197	-1.299982	2.532279
| 38> H  -3.769715	-0.084542	2.619615
| 39> O  -1.409629	0.753705	4.144845
| 40> H  -2.160641	0.139153	3.904170
| 41> H  -1.398490	0.794151	5.113402
| 42> O  1.419887	1.327259	-1.230721
| 43> H  2.080238	1.447158	-1.956257
| 44> H  1.812298	0.637129	-0.634509
| 45> O  -2.162684	2.899743	2.608113
| 46> H  -1.477508	2.833883	1.909460
| 47> H  -1.858398	2.243202	3.280072
| 48> O  -1.571777	-1.582047	1.163449
| 49> H  -1.034534	-2.164518	0.588583
| 50> H  -1.897212	-0.865105	0.552150
| 51> O  -0.324849	1.985693	0.747485
| 52> H  0.030098	1.264307	1.334998
| 53> H  0.336662	2.061919	0.025222
| 54> O  4.243991	-0.875590	-1.608788
| 55> H  3.755800	-0.675663	-0.783839
| 56> H  4.030103	-0.127006	-2.214342
| 57> O  2.237786	-0.685408	0.347195
| 58> H  1.870156	-0.418555	1.217257
| 59> H  1.571529	-1.344575	0.018606
| 60> O  0.335915	-2.313352	-0.738491
| 61> H  1.037916	-2.711147	-1.305466
| 62> H  -0.042580	-1.611064	-1.329649
| 63> **                         ****END OF INPUT****

CARTESIAN COORDINATES (ANGSTROEM)
---------------------------------
  O      3.183806    1.014486   -3.235595
  H      3.532059    1.625876   -3.901870
  H      2.547821    0.404124   -3.712279
  O     -2.296409    0.521909   -0.332394
  H     -3.105492    0.814619    0.154542
  H     -1.593007    1.129360    0.021874
  O     -0.502942   -0.225540   -2.262015
  H     -1.355586    0.045672   -1.859892
  H      0.156838    0.421181   -1.892365
  O      1.450762   -0.772682   -4.148498
  H      1.782832   -1.549016   -3.635101
  H      0.600658   -0.563819   -3.709023
  O      2.426544   -2.642097   -2.419339
  H      3.183598   -2.062888   -2.114213
  H      2.843542   -3.449128   -2.758961
  O     -4.028157    1.304058    1.557656
  H     -4.898445    1.728571    1.499801
  H     -3.417081    1.993097    1.950446
  O      0.373310   -0.081914    2.286787
  H     -0.056048    0.221791    3.123375
  H     -0.300896   -0.709939    1.913997
  O     -3.364357   -0.795228    3.171881
  H     -2.821197   -1.299982    2.532279
  H     -3.769715   -0.084542    2.619615
  O     -1.409629    0.753705    4.144845
  H     -2.160641    0.139153    3.904170
  H     -1.398490    0.794151    5.113402
  O      1.419887    1.327259   -1.230721
  H      2.080238    1.447158   -1.956257
  H      1.812298    0.637129   -0.634509
  O     -2.162684    2.899743    2.608113
  H     -1.477508    2.833883    1.909460
  H     -1.858398    2.243202    3.280072
  O     -1.571777   -1.582047    1.163449
  H     -1.034534   -2.164518    0.588583
  H     -1.897212   -0.865105    0.552150
  O     -0.324849    1.985693    0.747485
  H      0.030098    1.264307    1.334998
  H      0.336662    2.061919    0.025222
  O      4.243991   -0.875590   -1.608788
  H      3.755800   -0.675663   -0.783839
  H      4.030103   -0.127006   -2.214342
  O      2.237786   -0.685408    0.347195
  H      1.870156   -0.418555    1.217257
  H      1.571529   -1.344575    0.018606
  O      0.335915   -2.313352   -0.738491
  H      1.037916   -2.711147   -1.305466
  H     -0.042580   -1.611064   -1.329649

 Total Charge           Charge          ....    0
 Multiplicity           Mult            ....    1
 Number of Electrons    NEL             ....  160
 Basis Dimension        Dim             ....  688

ORBITAL ENERGIES
----------------

  NO   OCC          E(Eh)            E(eV)
   0   2.0000     -19.132131      -520.6117
   1   2.0000     -19.131968      -520.6073
   2   2.0000     -19.131824      -520.6034
   3   2.0000     -19.131730      -520.6008
   4   2.0000     -19.130624      -520.5707
   5   2.0000     -19.128186      -520.5044
   6   2.0000     -19.125966      -520.4440
   7   2.0000     -19.125954      -520.4437
   8   2.0000     -19.125008      -520.4179
   9   2.0000     -19.124638      -520.4079
  10   2.0000     -19.123564      -520.3786
  11   2.0000     -19.122905      -520.3607
  12   2.0000     -19.122087      -520.3384
  13   2.0000     -19.121522      -520.3231
  14   2.0000     -19.120862      -520.3051
  15   2.0000     -19.120579      -520.2974
  16   2.0000      -1.037843       -28.2411
  17   2.0000      -1.030819       -28.0500
  18   2.0000      -1.022032       -27.8109
  19   2.0000      -1.020497       -27.7691
  20   2.0000      -1.019418       -27.7398
  21   2.0000      -1.015992       -27.6466
  22   2.0000      -1.014638       -27.6097
  23   2.0000      -1.012564       -27.5533
  24   2.0000      -1.005062       -27.3491
  25   2.0000      -1.002256       -27.2728
  26   2.0000      -1.000986       -27.2382
  27   2.0000      -0.998364       -27.1669
  28   2.0000      -0.997282       -27.1374
  29   2.0000      -0.995655       -27.0932
  30   2.0000      -0.988005       -26.8850
  31   2.0000      -0.981028       -26.6951
  32   2.0000      -0.550813       -14.9884
  33   2.0000      -0.545042       -14.8313
  34   2.0000      -0.543932       -14.8011
  35   2.0000      -0.540784       -14.7155
  36   2.0000      -0.539009       -14.6672
  37   2.0000      -0.537006       -14.6127
  38   2.0000      -0.535190       -14.5633
  39   2.0000      -0.530767       -14.4429
  40   2.0000      -0.529229       -14.4010
  41   2.0000      -0.526727       -14.3330
  42   2.0000      -0.524645       -14.2763
  43   2.0000      -0.522512       -14.2183
  44   2.0000      -0.522327       -14.2132
  45   2.0000      -0.519504       -14.1364
  46   2.0000      -0.517650       -14.0860
  47   2.0000      -0.513984       -13.9862
  48   2.0000      -0.467648       -12.7253
  49   2.0000      -0.453503       -12.3404
  50   2.0000      -0.438387       -11.9291
  51   2.0000      -0.431767       -11.7490
  52   2.0000      -0.425291       -11.5728
  53   2.0000      -0.424010       -11.5379
  54   2.0000      -0.416293       -11.3279
  55   2.0000      -0.412326       -11.2200
  56   2.0000      -0.402575       -10.9546
  57   2.0000      -0.399701       -10.8764
  58   2.0000      -0.396773       -10.7967
  59   2.0000      -0.393122       -10.6974
  60   2.0000      -0.381627       -10.3846
  61   2.0000      -0.379502       -10.3268
  62   2.0000      -0.370145       -10.0721
  63   2.0000      -0.355126        -9.6635
  64   2.0000      -0.333421        -9.0728
  65   2.0000      -0.332336        -9.0433
  66   2.0000      -0.329512        -8.9665
  67   2.0000      -0.327338        -8.9073
  68   2.0000      -0.326366        -8.8809
  69   2.0000      -0.326096        -8.8735
  70   2.0000      -0.325290        -8.8516
  71   2.0000      -0.324101        -8.8192
  72   2.0000      -0.321799        -8.7566
  73   2.0000      -0.321492        -8.7482
  74   2.0000      -0.320672        -8.7259
  75   2.0000      -0.320192        -8.7129
  76   2.0000      -0.318496        -8.6667
  77   2.0000      -0.318095        -8.6558
  78   2.0000      -0.316934        -8.6242
  79   2.0000      -0.315164        -8.5760
  80   0.0000       0.011614         0.3160
  81   0.0000       0.030928         0.8416
  82   0.0000       0.057270         1.5584
  83   0.0000       0.057974         1.5776
  84   0.0000       0.065170         1.7734

MULLIKEN ATOMIC CHARGES
-----------------------
   0 O :   -0.747671
   1 H :    0.385083
   2 H :    0.383516
   3 O :   -0.765095
   4 H :    0.379736
   5 H :    0.362889
   6 O :   -0.757515
   7 H :    0.385122
   8 H :    0.365742
   9 O :   -0.746019
  10 H :    0.366132
  11 H :    0.378017
  12 O :   -0.742967
  13 H :    0.371669
  14 H :    0.385427
  15 O :   -0.742272
  16 H :    0.384900
  17 H :    0.374020
  18 O :   -0.762450
  19 H :    0.382131
  20 H :    0.363440
  21 O :   -0.743748
  22 H :    0.380452
  23 H :    0.371464
  24 O :   -0.743567
  25 H :    0.372485
  26 H :    0.385485
  27 O :   -0.765692
  28 H :    0.381086
  29 H :    0.359769
  30 O :   -0.744253
  31 H :    0.382749
  32 H :    0.367787
  33 O :   -0.756017
  34 H :    0.386598
  35 H :    0.368052
  36 O :   -0.761057
  37 H :    0.364480
  38 H :    0.390300
  39 O :   -0.740875
  40 H :    0.378682
  41 H :    0.376857
  42 O :   -0.749103
  43 H :    0.391009
  44 H :    0.357822
  45 O :   -0.761453
  46 H :    0.379219
  47 H :    0.367634
Sum of atomic charges:   -0.0000000

LOEWDIN ATOMIC CHARGES
----------------------
   0 O :   -0.279995
   1 H :    0.184137
   2 H :    0.146629
   3 O :   -0.305174
   4 H :    0.144512
   5 H :    0.133068
   6 O :   -0.299956
   7 H :    0.153085
   8 H :    0.134016
   9 O :   -0.312042
  10 H :    0.140842
  11 H :    0.148848
  12 O :   -0.277557
  13 H :    0.143238
  14 H :    0.184360
  15 O :   -0.276473
  16 H :    0.184514
  17 H :    0.146097
  18 O :   -0.301836
  19 H :    0.148073
  20 H :    0.135878
  21 O :   -0.315204
  22 H :    0.149696
  23 H :    0.142475
  24 O :   -0.279310
  25 H :    0.145948
  26 H :    0.184055
  27 O :   -0.295205
  28 H :    0.143588
  29 H :    0.132423
  30 O :   -0.316409
  31 H :    0.148335
  32 H :    0.142602
  33 O :   -0.295570
  34 H :    0.156287
  35 H :    0.136590
  36 O :   -0.292515
  37 H :    0.134033
  38 H :    0.150260
  39 O :   -0.308473
  40 H :    0.149676
  41 H :    0.142065
  42 O :   -0.291346
  43 H :    0.156309
  44 H :    0.139226
  45 O :   -0.316085
  46 H :    0.145894
  47 H :    0.136391

  Mayer bond orders larger than 0.1
B(  0-O ,  1-H ) :   0.8516 B(  0-O ,  2-H ) :   0.7583 B(  0-O , 28-H ) :   0.1161
B(  0-O , 41-H ) :   0.1057 B(  2-H ,  9-O ) :   0.1347 B(  3-O ,  4-H ) :   0.7956
B(  3-O ,  5-H ) :   0.7716 B(  3-O , 35-H ) :   0.1399 B(  4-H , 15-O ) :   0.1081
B(  5-H , 36-O ) :   0.1356 B(  6-O ,  7-H ) :   0.8172 B(  6-O ,  8-H ) :   0.7707
B(  6-O , 47-H ) :   0.1269 B(  8-H , 27-O ) :   0.1334 B(  9-O , 10-H ) :   0.8012
B(  9-O , 11-H ) :   0.8253 B( 10-H , 12-O ) :   0.1179 B( 12-O , 13-H ) :   0.7585
B( 12-O , 14-H ) :   0.8532 B( 13-H , 39-O ) :   0.1473 B( 15-O , 16-H ) :   0.8527
B( 15-O , 17-H ) :   0.7598 B( 15-O , 23-H ) :   0.1077 B( 17-H , 30-O ) :   0.1432
B( 18-O , 19-H ) :   0.8004 B( 18-O , 20-H ) :   0.7749 B( 18-O , 37-H ) :   0.1411
B( 20-H , 33-O ) :   0.1374 B( 21-O , 22-H ) :   0.8293 B( 21-O , 23-H ) :   0.8044
B( 21-O , 25-H ) :   0.1430 B( 24-O , 25-H ) :   0.7618 B( 24-O , 26-H ) :   0.8526
B( 24-O , 32-H ) :   0.1087 B( 27-O , 28-H ) :   0.7889 B( 27-O , 29-H ) :   0.7744
B( 29-H , 42-O ) :   0.1329 B( 30-O , 31-H ) :   0.8239 B( 30-O , 32-H ) :   0.8069
B( 33-O , 34-H ) :   0.8240 B( 33-O , 35-H ) :   0.7671 B( 36-O , 37-H ) :   0.7672
B( 36-O , 38-H ) :   0.8089 B( 39-O , 40-H ) :   0.8337 B( 39-O , 41-H ) :   0.8001
B( 42-O , 43-H ) :   0.8183 B( 42-O , 44-H ) :   0.7799 B( 44-H , 45-O ) :   0.1397
B( 45-O , 46-H ) :   0.8072 B( 45-O , 47-H ) :   0.7809

Dispersion correction           -0.060903836
FINAL SINGLE POINT ENERGY     -1223.174529001495

DIPOLE MOMENT
-------------
                                X             Y             Z
Electronic contribution:      0.06474       0.05397       0.01200
Nuclear contribution   :     -0.03086       0.41806      -0.12573
                        -----------------------------------------
Total Dipole Moment    :      0.03388       0.47203      -0.11374
                        -----------------------------------------
Magnitude (a.u.)       :      0.48672
Magnitude (Debye)      :      1.23715

                             ****ORCA TERMINATED NORMALLY****
TOTAL RUN TIME: 0 days 0 hours 2 minutes 6 seconds 723 msec
