                         Program Version 3.0.3 - RELEASE   -
|  1> ! B3LYP Def2-TZVP def2-TZVP/J RIJCOSX TightSCF Grid4 D3BJ COSMO
|  2>
|  3> %pal nprocs 12 end
|  4>
|  5> %scf
|  6>         maxiter 400
|  7> end
|  8>
|  9> %cosmo
| 10>         SMD true
| 11>         solvent "WATER"
| 12> end
| 13>
| 14> * xyz  0  1
| 15> O  3.073672	0.824351	-3.041152
| 16> H  3.585628	1.355768	-3.682145
| 17> H  2.433587	0.243965	-3.598960
| 18> O  -2.220201	0.551597	-0.357248
| 19> H  -3.058096	0.767288	0.158502
| 20> H  -1.550510	1.213771	0.021938
| 21> O  -0.440292	-0.075332	-2.266484
| 22> H  -1.296865	0.147143	-1.808654
| 23> H  0.221474	0.584314	-1.864973
| 24> O  1.371565	-0.782081	-4.197166
| 25> H  1.691382	-1.609278	-3.727958
| 26> H  0.546152	-0.546572	-3.697110
| 27> O  2.300706	-2.730354	-2.572755
| 28> H  3.071347	-2.199088	-2.148818
| 29> H  2.684477	-3.582983	-2.857231
| 30> O  -3.986922	1.095003	1.524357
| 31> H  -4.898606	1.443063	1.466077
| 32> H  -3.422901	1.851127	1.933957
| 33> O  0.387259	0.097389	2.284776
| 34> H  -0.079166	0.345441	3.142284
| 35> H  -0.253013	-0.575768	1.873194
| 36> O  -3.085693	-0.884361	3.123602
| 37> H  -2.517843	-1.355558	2.457098
| 38> H  -3.580580	-0.220601	2.555956
| 39> O  -1.379574	0.824546	4.106598
| 40> H  -2.066257	0.112194	3.820882
| 41> H  -1.342943	0.785511	5.082877
| 42> O  1.386586	1.473688	-1.123256
| 43> H  2.061340	1.488357	-1.871341
| 44> H  1.750651	0.749198	-0.511517
| 45> O  -2.335599	2.829203	2.568013
| 46> H  -1.616094	2.825477	1.882000
| 47> H  -1.972887	2.208445	3.268473
| 48> O  -1.361993	-1.502701	1.082608
| 49> H  -0.788099	-2.033559	0.464574
| 50> H  -1.741291	-0.771933	0.485246
| 51> O  -0.393723	2.127239	0.766649
| 52> H  -0.028016	1.400942	1.378316
| 53> H  0.293509	2.198022	0.047268
| 54> O  4.071590	-1.142576	-1.482752
| 55> H  3.592692	-0.927906	-0.638322
| 56> H  3.852072	-0.356592	-2.067905
| 57> O  2.181743	-0.554013	0.401595
| 58> H  1.774983	-0.332078	1.283944
| 59> H  1.526810	-1.218676	-0.004438
| 60> O  0.430668	-2.131811	-0.815149
| 61> H  1.073732	-2.603892	-1.430585
| 62> H  0.050056	-1.404089	-1.411215
| 63> **                         ****END OF INPUT****

CARTESIAN COORDINATES (ANGSTROEM)
---------------------------------
  O      3.073672    0.824351   -3.041152
  H      3.585628    1.355768   -3.682145
  H      2.433587    0.243965   -3.598960
  O     -2.220201    0.551597   -0.357248
  H     -3.058096    0.767288    0.158502
  H     -1.550510    1.213771    0.021938
  O     -0.440292   -0.075332   -2.266484
  H     -1.296865    0.147143   -1.808654
  H      0.221474    0.584314   -1.864973
  O      1.371565   -0.782081   -4.197166
  H      1.691382   -1.609278   -3.727958
  H      0.546152   -0.546572   -3.697110
  O      2.300706   -2.730354   -2.572755
  H      3.071347   -2.199088   -2.148818
  H      2.684477   -3.582983   -2.857231
  O     -3.986922    1.095003    1.524357
  H     -4.898606    1.443063    1.466077
  H     -3.422901    1.851127    1.933957
  O      0.387259    0.097389    2.284776
  H     -0.079166    0.345441    3.142284
  H     -0.253013   -0.575768    1.873194
  O     -3.085693   -0.884361    3.123602
  H     -2.517843   -1.355558    2.457098
  H     -3.580580   -0.220601    2.555956
  O     -1.379574    0.824546    4.106598
  H     -2.066257    0.112194    3.820882
  H     -1.342943    0.785511    5.082877
  O      1.386586    1.473688   -1.123256
  H      2.061340    1.488357   -1.871341
  H      1.750651    0.749198   -0.511517
  O     -2.335599    2.829203    2.568013
  H     -1.616094    2.825477    1.882000
  H     -1.972887    2.208445    3.268473
  O     -1.361993   -1.502701    1.082608
  H     -0.788099   -2.033559    0.464574
  H     -1.741291   -0.771933    0.485246
  O     -0.393723    2.127239    0.766649
  H     -0.028016    1.400942    1.378316
  H      0.293509    2.198022    0.047268
  O      4.071590   -1.142576   -1.482752
  H      3.592692   -0.927906   -0.638322
  H      3.852072   -0.356592   -2.067905
  O      2.181743   -0.554013    0.401595
  H      1.774983   -0.332078    1.283944
  H      1.526810   -1.218676   -0.004438
  O      0.430668   -2.131811   -0.815149
  H      1.073732   -2.603892   -1.430585
  H      0.050056   -1.404089   -1.411215

 Total Charge           Charge          ....    0
 Multiplicity           Mult            ....    1
 Number of Electrons    NEL             ....  160
 Basis Dimension        Dim             ....  688

ORBITAL ENERGIES
----------------

  NO   OCC          E(Eh)            E(eV)
   0   2.0000     -19.133191      -520.6406
   1   2.0000     -19.133098      -520.6381
   2   2.0000     -19.132960      -520.6343
   3   2.0000     -19.132661      -520.6262
   4   2.0000     -19.127367      -520.4821
   5   2.0000     -19.127270      -520.4795
   6   2.0000     -19.127267      -520.4794
   7   2.0000     -19.126965      -520.4712
   8   2.0000     -19.124470      -520.4033
   9   2.0000     -19.124111      -520.3935
  10   2.0000     -19.124092      -520.3930
  11   2.0000     -19.123981      -520.3900
  12   2.0000     -19.123921      -520.3883
  13   2.0000     -19.123891      -520.3875
  14   2.0000     -19.123834      -520.3860
  15   2.0000     -19.123230      -520.3695
  16   2.0000      -1.036990       -28.2179
  17   2.0000      -1.029388       -28.0111
  18   2.0000      -1.019204       -27.7340
  19   2.0000      -1.017749       -27.6944
  20   2.0000      -1.016149       -27.6508
  21   2.0000      -1.011597       -27.5269
  22   2.0000      -1.010286       -27.4913
  23   2.0000      -1.007781       -27.4231
  24   2.0000      -1.000875       -27.2352
  25   2.0000      -0.997148       -27.1338
  26   2.0000      -0.995674       -27.0937
  27   2.0000      -0.990710       -26.9586
  28   2.0000      -0.990023       -26.9399
  29   2.0000      -0.989200       -26.9175
  30   2.0000      -0.980351       -26.6767
  31   2.0000      -0.970546       -26.4099
  32   2.0000      -0.545058       -14.8318
  33   2.0000      -0.544064       -14.8047
  34   2.0000      -0.543415       -14.7871
  35   2.0000      -0.540852       -14.7173
  36   2.0000      -0.538635       -14.6570
  37   2.0000      -0.533215       -14.5095
  38   2.0000      -0.532620       -14.4933
  39   2.0000      -0.528529       -14.3820
  40   2.0000      -0.524896       -14.2831
  41   2.0000      -0.521572       -14.1927
  42   2.0000      -0.518611       -14.1121
  43   2.0000      -0.518018       -14.0960
  44   2.0000      -0.517050       -14.0696
  45   2.0000      -0.513104       -13.9623
  46   2.0000      -0.512258       -13.9393
  47   2.0000      -0.511202       -13.9105
  48   2.0000      -0.473202       -12.8765
  49   2.0000      -0.459615       -12.5068
  50   2.0000      -0.439350       -11.9553
  51   2.0000      -0.434298       -11.8179
  52   2.0000      -0.428089       -11.6489
  53   2.0000      -0.425269       -11.5722
  54   2.0000      -0.418550       -11.3893
  55   2.0000      -0.417013       -11.3475
  56   2.0000      -0.402047       -10.9403
  57   2.0000      -0.398844       -10.8531
  58   2.0000      -0.397578       -10.8186
  59   2.0000      -0.395084       -10.7508
  60   2.0000      -0.379514       -10.3271
  61   2.0000      -0.376601       -10.2478
  62   2.0000      -0.368557       -10.0289
  63   2.0000      -0.350716        -9.5435
  64   2.0000      -0.331231        -9.0133
  65   2.0000      -0.330488        -8.9930
  66   2.0000      -0.328808        -8.9473
  67   2.0000      -0.324763        -8.8373
  68   2.0000      -0.324421        -8.8280
  69   2.0000      -0.324032        -8.8174
  70   2.0000      -0.323768        -8.8102
  71   2.0000      -0.322720        -8.7817
  72   2.0000      -0.320407        -8.7187
  73   2.0000      -0.320312        -8.7161
  74   2.0000      -0.318936        -8.6787
  75   2.0000      -0.318749        -8.6736
  76   2.0000      -0.317321        -8.6347
  77   2.0000      -0.316879        -8.6227
  78   2.0000      -0.314695        -8.5633
  79   2.0000      -0.313022        -8.5178
  80   0.0000       0.013128         0.3572
  81   0.0000       0.031587         0.8595
  82   0.0000       0.058088         1.5806
  83   0.0000       0.058341         1.5875
  84   0.0000       0.066926         1.8212

MULLIKEN ATOMIC CHARGES
-----------------------
   0 O :   -0.753159
   1 H :    0.387991
   2 H :    0.378710
   3 O :   -0.779418
   4 H :    0.387102
   5 H :    0.365691
   6 O :   -0.773171
   7 H :    0.397219
   8 H :    0.366597
   9 O :   -0.745642
  10 H :    0.377041
  11 H :    0.387779
  12 O :   -0.752207
  13 H :    0.377461
  14 H :    0.388042
  15 O :   -0.752020
  16 H :    0.387696
  17 H :    0.378030
  18 O :   -0.779321
  19 H :    0.386410
  20 H :    0.366046
  21 O :   -0.743736
  22 H :    0.388572
  23 H :    0.375970
  24 O :   -0.753565
  25 H :    0.377706
  26 H :    0.387490
  27 O :   -0.779692
  28 H :    0.387604
  29 H :    0.370074
  30 O :   -0.746233
  31 H :    0.389575
  32 H :    0.375793
  33 O :   -0.772718
  34 H :    0.397607
  35 H :    0.369733
  36 O :   -0.775759
  37 H :    0.370743
  38 H :    0.398551
  39 O :   -0.746904
  40 H :    0.388154
  41 H :    0.375213
  42 O :   -0.773120
  43 H :    0.397614
  44 H :    0.366759
  45 O :   -0.777914
  46 H :    0.386713
  47 H :    0.368892
Sum of atomic charges:   -0.0000000

LOEWDIN ATOMIC CHARGES
----------------------
   0 O :   -0.285857
   1 H :    0.188171
   2 H :    0.150827
   3 O :   -0.317330
   4 H :    0.149692
   5 H :    0.140064
   6 O :   -0.310757
   7 H :    0.156540
   8 H :    0.140941
   9 O :   -0.315543
  10 H :    0.148991
  11 H :    0.154584
  12 O :   -0.284902
  13 H :    0.151204
  14 H :    0.188326
  15 O :   -0.286563
  16 H :    0.188239
  17 H :    0.150604
  18 O :   -0.318062
  19 H :    0.150025
  20 H :    0.140233
  21 O :   -0.314846
  22 H :    0.155558
  23 H :    0.149442
  24 O :   -0.289215
  25 H :    0.149981
  26 H :    0.187764
  27 O :   -0.317370
  28 H :    0.150232
  29 H :    0.140365
  30 O :   -0.316815
  31 H :    0.154697
  32 H :    0.149509
  33 O :   -0.309196
  34 H :    0.157265
  35 H :    0.141261
  36 O :   -0.310866
  37 H :    0.141452
  38 H :    0.156459
  39 O :   -0.319429
  40 H :    0.154043
  41 H :    0.148113
  42 O :   -0.308224
  43 H :    0.156653
  44 H :    0.141344
  45 O :   -0.317504
  46 H :    0.149643
  47 H :    0.140256

  Mayer bond orders larger than 0.1
B(  0-O ,  1-H ) :   0.8483 B(  0-O ,  2-H ) :   0.7276 B(  0-O , 28-H ) :   0.1272
B(  0-O , 41-H ) :   0.1210 B(  2-H ,  9-O ) :   0.1735 B(  3-O ,  4-H ) :   0.7708
B(  3-O ,  5-H ) :   0.7519 B(  3-O , 35-H ) :   0.1591 B(  4-H , 15-O ) :   0.1285
B(  5-H , 36-O ) :   0.1542 B(  6-O ,  7-H ) :   0.7965 B(  6-O ,  8-H ) :   0.7479
B(  6-O , 47-H ) :   0.1523 B(  8-H , 27-O ) :   0.1598 B(  9-O , 10-H ) :   0.7888
B(  9-O , 11-H ) :   0.8134 B( 10-H , 12-O ) :   0.1189 B( 12-O , 13-H ) :   0.7290
B( 12-O , 14-H ) :   0.8484 B( 12-O , 46-H ) :   0.1280 B( 13-H , 39-O ) :   0.1735
B( 15-O , 16-H ) :   0.8486 B( 15-O , 17-H ) :   0.7285 B( 15-O , 23-H ) :   0.1187
B( 17-H , 30-O ) :   0.1731 B( 18-O , 19-H ) :   0.7716 B( 18-O , 20-H ) :   0.7513
B( 18-O , 37-H ) :   0.1581 B( 19-H , 24-O ) :   0.1281 B( 20-H , 33-O ) :   0.1544
B( 21-O , 22-H ) :   0.8129 B( 21-O , 23-H ) :   0.7896 B( 21-O , 25-H ) :   0.1749
B( 24-O , 25-H ) :   0.7269 B( 24-O , 26-H ) :   0.8487 B( 24-O , 32-H ) :   0.1187
B( 27-O , 28-H ) :   0.7711 B( 27-O , 29-H ) :   0.7514 B( 29-H , 42-O ) :   0.1531
B( 30-O , 31-H ) :   0.8120 B( 30-O , 32-H ) :   0.7898 B( 33-O , 34-H ) :   0.7969
B( 33-O , 35-H ) :   0.7471 B( 36-O , 37-H ) :   0.7470 B( 36-O , 38-H ) :   0.7940
B( 39-O , 40-H ) :   0.8120 B( 39-O , 41-H ) :   0.7891 B( 42-O , 43-H ) :   0.7956
B( 42-O , 44-H ) :   0.7468 B( 44-H , 45-O ) :   0.1604 B( 45-O , 46-H ) :   0.7716
B( 45-O , 47-H ) :   0.7535

Dispersion correction           -0.063253223
FINAL SINGLE POINT ENERGY     -1223.158547169430

DIPOLE MOMENT
-------------
                                X             Y             Z
Electronic contribution:     -0.00834      -0.00951      -0.00749
Nuclear contribution   :     -0.00238      -0.04838      -0.00255
                        -----------------------------------------
Total Dipole Moment    :     -0.01072      -0.05788      -0.01003
                        -----------------------------------------
Magnitude (a.u.)       :      0.05972
Magnitude (Debye)      :      0.15179

                             ****ORCA TERMINATED NORMALLY****
TOTAL RUN TIME: 0 days 0 hours 2 minutes 8 seconds 610 msec
