                         Program Version 4.2.0 -  RELEASE  -
|  1> # 12h2o.su.etal.mol0,1,4,5,7,8,10
|  2> ! MP2 def2-TZVP EnGrad TightSCF
|  3>
|  4> %pal
|  5>     nprocs 6
|  6> end
|  7>
|  8> %maxcore 8000
|  9>
| 10> %scf
| 11>     ConvForced true
| 12> end
| 13>
| 14> *xyz 0 1
| 15> O   1.794470000   0.923410000   2.768350000
| 16> H   2.338250000   1.359750000   3.430940000
| 17> H   0.879480000   1.303000000   2.865760000
| 18> O  -1.794470000  -0.923410000   2.768350000
| 19> H  -2.338250000  -1.359750000   3.430940000
| 20> H  -0.879480000  -1.303000000   2.865760000
| 21> O  -0.885520000   1.737840000   0.052730000
| 22> H  -1.032320000   2.090180000  -0.841890000
| 23> H  -1.284090000   0.839590000   0.017130000
| 24> O   0.885520000  -1.737840000   0.052730000
| 25> H   1.284090000  -0.839590000   0.017130000
| 26> H   1.032320000  -2.090180000  -0.841890000
| 27> O  -1.737840000  -0.885520000  -0.052730000
| 28> H  -2.090180000  -1.032320000   0.841890000
| 29> H  -0.839590000  -1.284090000  -0.017130000
| 30> O   1.752130000   0.741530000  -2.896280000
| 31> H   2.036450000   0.920500000  -1.984040000
| 32> H   0.921210000   1.242140000  -2.984230000
| 33> O  -0.923410000   1.794470000  -2.768350000
| 34> H  -1.359750000   2.338250000  -3.430940000
| 35> H  -1.303000000   0.879480000  -2.865760000
| 36> *
| 37>
| 38>                          ****END OF INPUT****

CARTESIAN COORDINATES (ANGSTROEM)
---------------------------------
  O      1.794470    0.923410    2.768350
  H      2.338250    1.359750    3.430940
  H      0.879480    1.303000    2.865760
  O     -1.794470   -0.923410    2.768350
  H     -2.338250   -1.359750    3.430940
  H     -0.879480   -1.303000    2.865760
  O     -0.885520    1.737840    0.052730
  H     -1.032320    2.090180   -0.841890
  H     -1.284090    0.839590    0.017130
  O      0.885520   -1.737840    0.052730
  H      1.284090   -0.839590    0.017130
  H      1.032320   -2.090180   -0.841890
  O     -1.737840   -0.885520   -0.052730
  H     -2.090180   -1.032320    0.841890
  H     -0.839590   -1.284090   -0.017130
  O      1.752130    0.741530   -2.896280
  H      2.036450    0.920500   -1.984040
  H      0.921210    1.242140   -2.984230
  O     -0.923410    1.794470   -2.768350
  H     -1.359750    2.338250   -3.430940
  H     -1.303000    0.879480   -2.865760

 Total Charge           Charge          ....    0
 Multiplicity           Mult            ....    1
 Number of Electrons    NEL             ....   70
 Basis Dimension        Dim             ....  301

ORBITAL ENERGIES
----------------

  NO   OCC          E(Eh)            E(eV)
   0   2.0000     -20.600048      -560.5558
   1   2.0000     -20.584546      -560.1340
   2   2.0000     -20.582653      -560.0825
   3   2.0000     -20.556537      -559.3718
   4   2.0000     -20.538905      -558.8920
   5   2.0000     -20.528811      -558.6173
   6   2.0000     -20.495626      -557.7143
   7   2.0000      -1.380282       -37.5594
   8   2.0000      -1.365789       -37.1650
   9   2.0000      -1.360479       -37.0205
  10   2.0000      -1.331879       -36.2423
  11   2.0000      -1.321010       -35.9465
  12   2.0000      -1.317721       -35.8570
  13   2.0000      -1.279276       -34.8109
  14   2.0000      -0.745905       -20.2971
  15   2.0000      -0.727461       -19.7952
  16   2.0000      -0.722522       -19.6608
  17   2.0000      -0.699741       -19.0409
  18   2.0000      -0.693208       -18.8631
  19   2.0000      -0.690811       -18.7979
  20   2.0000      -0.663920       -18.0662
  21   2.0000      -0.618479       -16.8297
  22   2.0000      -0.611666       -16.6443
  23   2.0000      -0.597004       -16.2453
  24   2.0000      -0.574785       -15.6407
  25   2.0000      -0.569327       -15.4922
  26   2.0000      -0.563032       -15.3209
  27   2.0000      -0.543574       -14.7914
  28   2.0000      -0.523675       -14.2499
  29   2.0000      -0.520224       -14.1560
  30   2.0000      -0.509274       -13.8580
  31   2.0000      -0.499924       -13.6036
  32   2.0000      -0.486243       -13.2313
  33   2.0000      -0.471056       -12.8181
  34   2.0000      -0.446605       -12.1527
  35   0.0000       0.098376         2.6769
  36   0.0000       0.116282         3.1642
  37   0.0000       0.134609         3.6629
  38   0.0000       0.145101         3.9484
  39   0.0000       0.176172         4.7939

MULLIKEN ATOMIC CHARGES
-----------------------
   0 O :   -0.698198
   1 H :    0.336894
   2 H :    0.361773
   3 O :   -0.699320
   4 H :    0.348033
   5 H :    0.365095
   6 O :   -0.742655
   7 H :    0.349702
   8 H :    0.348579
   9 O :   -0.693735
  10 H :    0.368731
  11 H :    0.359053
  12 O :   -0.734581
  13 H :    0.373929
  14 H :    0.351148
  15 O :   -0.707307
  16 H :    0.330833
  17 H :    0.360846
  18 O :   -0.712831
  19 H :    0.359010
  20 H :    0.375003
Sum of atomic charges:   -0.0000000

LOEWDIN ATOMIC CHARGES
----------------------
   0 O :   -0.343945
   1 H :    0.157404
   2 H :    0.186709
   3 O :   -0.310612
   4 H :    0.161704
   5 H :    0.188474
   6 O :   -0.373985
   7 H :    0.139160
   8 H :    0.135752
   9 O :   -0.290839
  10 H :    0.181036
  11 H :    0.173292
  12 O :   -0.323416
  13 H :    0.149240
  14 H :    0.138186
  15 O :   -0.346310
  16 H :    0.158659
  17 H :    0.147873
  18 O :   -0.286949
  19 H :    0.165400
  20 H :    0.193164

  Mayer bond orders larger than 0.100000
B(  0-O ,  1-H ) :   0.8536 B(  0-O ,  2-H ) :   0.8295 B(  3-O ,  4-H ) :   0.8439
B(  3-O ,  5-H ) :   0.8252 B(  6-O ,  7-H ) :   0.8378 B(  6-O ,  8-H ) :   0.7908
B(  9-O , 10-H ) :   0.8208 B(  9-O , 11-H ) :   0.8357 B( 12-O , 13-H ) :   0.8110
B( 12-O , 14-H ) :   0.7909 B( 15-O , 16-H ) :   0.8547 B( 15-O , 17-H ) :   0.8181
B( 18-O , 19-H ) :   0.8346 B( 18-O , 20-H ) :   0.8170

MP2 TOTAL ENERGY:     -534.237351191 Eh
FINAL SINGLE POINT ENERGY      -534.237351191412

DIPOLE MOMENT
-------------
                                X             Y             Z
Electronic contribution:      0.06661      -0.17045      -0.02411
Nuclear contribution   :     -0.67972      -0.19727       0.54442
                        -----------------------------------------
Total Dipole Moment    :     -0.61311      -0.36772       0.52032
                        -----------------------------------------
Magnitude (a.u.)       :      0.88422
Magnitude (Debye)      :      2.24752

Rotational constants in cm-1:     0.038391     0.021093     0.018904
Rotational constants in MHz :  1150.922112   632.362726   566.718884

                             ****ORCA TERMINATED NORMALLY****
TOTAL RUN TIME: 0 days 0 hours 1 minutes 46 seconds 366 msec
