                         Program Version 4.2.0 -  RELEASE  -
|  1> # 12mecn.remya.etal.2.mol1,3,9
|  2> ! MP2 def2-TZVP EnGrad TightSCF
|  3>
|  4> %pal
|  5>     nprocs 6
|  6> end
|  7>
|  8> %maxcore 8000
|  9>
| 10> %scf
| 11>     ConvForced true
| 12> end
| 13>
| 14> *xyz 0 1
| 15> C  -4.697980000  -0.249690000   1.746215000
| 16> H  -4.927570000   0.755530000   2.111799000
| 17> H  -3.709180000  -0.561560000   2.093253000
| 18> H  -5.432280000  -0.961520000   2.128066000
| 19> C  -4.714100000  -0.247110000   0.301670000
| 20> N  -4.729750000  -0.234960000  -0.865260000
| 21> C  -5.181310000   2.853865000  -1.626100000
| 22> H  -5.488260000   3.811434000  -2.053310000
| 23> H  -5.857590000   2.068112000  -1.968630000
| 24> H  -4.170750000   2.611402000  -1.966640000
| 25> C  -5.187260000   2.919160000  -0.181450000
| 26> N  -5.181700000   2.970641000   0.983640000
| 27> C   0.923766000   4.000693000  -1.575910000
| 28> H   0.011949000   4.478423000  -1.939550000
| 29> H   0.947903000   2.966558000  -1.929960000
| 30> H   1.805950000   4.519548000  -1.956520000
| 31> C   0.942834000   3.994846000  -0.131200000
| 32> N   0.960035000   3.982544000   1.035639000
| 33> *
| 34>
| 35>                          ****END OF INPUT****

CARTESIAN COORDINATES (ANGSTROEM)
---------------------------------
  C     -4.697980   -0.249690    1.746215
  H     -4.927570    0.755530    2.111799
  H     -3.709180   -0.561560    2.093253
  H     -5.432280   -0.961520    2.128066
  C     -4.714100   -0.247110    0.301670
  N     -4.729750   -0.234960   -0.865260
  C     -5.181310    2.853865   -1.626100
  H     -5.488260    3.811434   -2.053310
  H     -5.857590    2.068112   -1.968630
  H     -4.170750    2.611402   -1.966640
  C     -5.187260    2.919160   -0.181450
  N     -5.181700    2.970641    0.983640
  C      0.923766    4.000693   -1.575910
  H      0.011949    4.478423   -1.939550
  H      0.947903    2.966558   -1.929960
  H      1.805950    4.519548   -1.956520
  C      0.942834    3.994846   -0.131200
  N      0.960035    3.982544    1.035639

 Total Charge           Charge          ....    0
 Multiplicity           Mult            ....    1
 Number of Electrons    NEL             ....   66
 Basis Dimension        Dim             ....  333

ORBITAL ENERGIES
----------------

  NO   OCC          E(Eh)            E(eV)
   0   2.0000     -15.573238      -423.7693
   1   2.0000     -15.570733      -423.7012
   2   2.0000     -15.570571      -423.6968
   3   2.0000     -11.285507      -307.0943
   4   2.0000     -11.282789      -307.0203
   5   2.0000     -11.282419      -307.0102
   6   2.0000     -11.280018      -306.9449
   7   2.0000     -11.274242      -306.7877
   8   2.0000     -11.270441      -306.6843
   9   2.0000      -1.218065       -33.1452
  10   2.0000      -1.214272       -33.0420
  11   2.0000      -1.213228       -33.0136
  12   2.0000      -1.044919       -28.4337
  13   2.0000      -1.036812       -28.2131
  14   2.0000      -1.033504       -28.1231
  15   2.0000      -0.701022       -19.0758
  16   2.0000      -0.695809       -18.9339
  17   2.0000      -0.690846       -18.7989
  18   2.0000      -0.634917       -17.2770
  19   2.0000      -0.631819       -17.1927
  20   2.0000      -0.630835       -17.1659
  21   2.0000      -0.622036       -16.9265
  22   2.0000      -0.618657       -16.8345
  23   2.0000      -0.616431       -16.7739
  24   2.0000      -0.558879       -15.2079
  25   2.0000      -0.555696       -15.1213
  26   2.0000      -0.555683       -15.1209
  27   2.0000      -0.463296       -12.6069
  28   2.0000      -0.458305       -12.4711
  29   2.0000      -0.457795       -12.4572
  30   2.0000      -0.457056       -12.4371
  31   2.0000      -0.456919       -12.4334
  32   2.0000      -0.452440       -12.3115
  33   0.0000       0.108132         2.9424
  34   0.0000       0.130709         3.5568
  35   0.0000       0.144950         3.9443
  36   0.0000       0.169213         4.6045
  37   0.0000       0.171028         4.6539

MULLIKEN ATOMIC CHARGES
-----------------------
   0 C :   -0.285454
   1 H :    0.206821
   2 H :    0.168047
   3 H :    0.166007
   4 C :   -0.111573
   5 N :   -0.143971
   6 C :   -0.263822
   7 H :    0.171142
   8 H :    0.186011
   9 H :    0.166447
  10 C :   -0.115141
  11 N :   -0.144504
  12 C :   -0.280005
  13 H :    0.169652
  14 H :    0.172995
  15 H :    0.172590
  16 C :   -0.144857
  17 N :   -0.090386
Sum of atomic charges:    0.0000000

LOEWDIN ATOMIC CHARGES
----------------------
   0 C :   -0.281292
   1 H :    0.157778
   2 H :    0.153271
   3 H :    0.150510
   4 C :   -0.208858
   5 N :    0.031733
   6 C :   -0.285705
   7 H :    0.148209
   8 H :    0.156207
   9 H :    0.154762
  10 C :   -0.209428
  11 N :    0.032813
  12 C :   -0.283989
  13 H :    0.150684
  14 H :    0.153486
  15 H :    0.151995
  16 C :   -0.219636
  17 N :    0.047457

  Mayer bond orders larger than 0.100000
B(  0-C ,  1-H ) :   0.9010 B(  0-C ,  2-H ) :   0.9143 B(  0-C ,  3-H ) :   0.9166
B(  0-C ,  4-C ) :   0.9000 B(  4-C ,  5-N ) :   2.7916 B(  6-C ,  7-H ) :   0.9111
B(  6-C ,  8-H ) :   0.9101 B(  6-C ,  9-H ) :   0.9157 B(  6-C , 10-C ) :   0.9120
B( 10-C , 11-N ) :   2.7695 B( 12-C , 13-H ) :   0.9172 B( 12-C , 14-H ) :   0.9171
B( 12-C , 15-H ) :   0.9164 B( 12-C , 16-C ) :   0.9015 B( 16-C , 17-N ) :   2.8354

MP2 TOTAL ENERGY:     -397.458887373 Eh
FINAL SINGLE POINT ENERGY      -397.458887372976

DIPOLE MOMENT
-------------
                                X             Y             Z
Electronic contribution:     -0.03939       0.19505       3.16983
Nuclear contribution   :      0.03916      -0.26970      -4.65689
                        -----------------------------------------
Total Dipole Moment    :     -0.00023      -0.07465      -1.48705
                        -----------------------------------------
Magnitude (a.u.)       :      1.48893
Magnitude (Debye)      :      3.78455

Rotational constants in cm-1:     0.046214     0.012891     0.012031
Rotational constants in MHz :  1385.459627   386.462330   360.678770

                             ****ORCA TERMINATED NORMALLY****
TOTAL RUN TIME: 0 days 0 hours 3 minutes 3 seconds 998 msec
