                         Program Version 4.2.0 -  RELEASE  -
|  1> # 12h2o.su.etal.mol1,2,3,5,7,8,11
|  2> ! MP2 def2-TZVP EnGrad TightSCF
|  3>
|  4> %pal
|  5>     nprocs 6
|  6> end
|  7>
|  8> %maxcore 8000
|  9>
| 10> %scf
| 11>     ConvForced true
| 12> end
| 13>
| 14> *xyz 0 1
| 15> O  -1.794470000  -0.923410000   2.768350000
| 16> H  -2.338250000  -1.359750000   3.430940000
| 17> H  -0.879480000  -1.303000000   2.865760000
| 18> O   0.923410000  -1.794470000  -2.768350000
| 19> H   1.359750000  -2.338250000  -3.430940000
| 20> H   1.303000000  -0.879480000  -2.865760000
| 21> O  -1.752130000  -0.741530000  -2.896280000
| 22> H  -2.036450000  -0.920500000  -1.984040000
| 23> H  -0.921210000  -1.242140000  -2.984230000
| 24> O   0.885520000  -1.737840000   0.052730000
| 25> H   1.284090000  -0.839590000   0.017130000
| 26> H   1.032320000  -2.090180000  -0.841890000
| 27> O  -1.737840000  -0.885520000  -0.052730000
| 28> H  -2.090180000  -1.032320000   0.841890000
| 29> H  -0.839590000  -1.284090000  -0.017130000
| 30> O   1.752130000   0.741530000  -2.896280000
| 31> H   2.036450000   0.920500000  -1.984040000
| 32> H   0.921210000   1.242140000  -2.984230000
| 33> O  -0.741530000   1.752130000   2.896280000
| 34> H  -0.920500000   2.036450000   1.984040000
| 35> H  -1.242140000   0.921210000   2.984230000
| 36> *
| 37>
| 38>                          ****END OF INPUT****

CARTESIAN COORDINATES (ANGSTROEM)
---------------------------------
  O     -1.794470   -0.923410    2.768350
  H     -2.338250   -1.359750    3.430940
  H     -0.879480   -1.303000    2.865760
  O      0.923410   -1.794470   -2.768350
  H      1.359750   -2.338250   -3.430940
  H      1.303000   -0.879480   -2.865760
  O     -1.752130   -0.741530   -2.896280
  H     -2.036450   -0.920500   -1.984040
  H     -0.921210   -1.242140   -2.984230
  O      0.885520   -1.737840    0.052730
  H      1.284090   -0.839590    0.017130
  H      1.032320   -2.090180   -0.841890
  O     -1.737840   -0.885520   -0.052730
  H     -2.090180   -1.032320    0.841890
  H     -0.839590   -1.284090   -0.017130
  O      1.752130    0.741530   -2.896280
  H      2.036450    0.920500   -1.984040
  H      0.921210    1.242140   -2.984230
  O     -0.741530    1.752130    2.896280
  H     -0.920500    2.036450    1.984040
  H     -1.242140    0.921210    2.984230

 Total Charge           Charge          ....    0
 Multiplicity           Mult            ....    1
 Number of Electrons    NEL             ....   70
 Basis Dimension        Dim             ....  301

ORBITAL ENERGIES
----------------

  NO   OCC          E(Eh)            E(eV)
   0   2.0000     -20.616697      -561.0088
   1   2.0000     -20.608893      -560.7965
   2   2.0000     -20.580492      -560.0237
   3   2.0000     -20.575980      -559.9009
   4   2.0000     -20.537243      -558.8468
   5   2.0000     -20.524152      -558.4906
   6   2.0000     -20.498961      -557.8051
   7   2.0000      -1.402997       -38.1775
   8   2.0000      -1.389092       -37.7991
   9   2.0000      -1.368909       -37.2499
  10   2.0000      -1.357037       -36.9268
  11   2.0000      -1.319676       -35.9102
  12   2.0000      -1.311217       -35.6800
  13   2.0000      -1.283635       -34.9295
  14   2.0000      -0.758800       -20.6480
  15   2.0000      -0.754705       -20.5366
  16   2.0000      -0.744317       -20.2539
  17   2.0000      -0.726961       -19.7816
  18   2.0000      -0.693519       -18.8716
  19   2.0000      -0.689942       -18.7743
  20   2.0000      -0.663540       -18.0558
  21   2.0000      -0.645490       -17.5647
  22   2.0000      -0.628579       -17.1045
  23   2.0000      -0.615407       -16.7461
  24   2.0000      -0.593143       -16.1403
  25   2.0000      -0.581039       -15.8109
  26   2.0000      -0.560378       -15.2487
  27   2.0000      -0.550915       -14.9912
  28   2.0000      -0.540073       -14.6961
  29   2.0000      -0.528623       -14.3846
  30   2.0000      -0.513274       -13.9669
  31   2.0000      -0.506818       -13.7912
  32   2.0000      -0.485034       -13.1984
  33   2.0000      -0.475219       -12.9314
  34   2.0000      -0.448999       -12.2179
  35   0.0000       0.076937         2.0936
  36   0.0000       0.105696         2.8761
  37   0.0000       0.140985         3.8364
  38   0.0000       0.155341         4.2270
  39   0.0000       0.169994         4.6258

MULLIKEN ATOMIC CHARGES
-----------------------
   0 O :   -0.713685
   1 H :    0.362534
   2 H :    0.374933
   3 O :   -0.749420
   4 H :    0.353357
   5 H :    0.380298
   6 O :   -0.736289
   7 H :    0.372381
   8 H :    0.341530
   9 O :   -0.694101
  10 H :    0.329484
  11 H :    0.384831
  12 O :   -0.743472
  13 H :    0.361066
  14 H :    0.343822
  15 O :   -0.682350
  16 H :    0.351390
  17 H :    0.381072
  18 O :   -0.707390
  19 H :    0.332658
  20 H :    0.357350
Sum of atomic charges:   -0.0000000

LOEWDIN ATOMIC CHARGES
----------------------
   0 O :   -0.286788
   1 H :    0.167145
   2 H :    0.193067
   3 O :   -0.311986
   4 H :    0.160629
   5 H :    0.145638
   6 O :   -0.360378
   7 H :    0.150993
   8 H :    0.137496
   9 O :   -0.298859
  10 H :    0.165305
  11 H :    0.154532
  12 O :   -0.348700
  13 H :    0.144872
  14 H :    0.137846
  15 O :   -0.265646
  16 H :    0.170451
  17 H :    0.185350
  18 O :   -0.348445
  19 H :    0.161299
  20 H :    0.146178

  Mayer bond orders larger than 0.100000
B(  0-O ,  1-H ) :   0.8329 B(  0-O ,  2-H ) :   0.8178 B(  3-O ,  4-H ) :   0.8389
B(  3-O ,  5-H ) :   0.7512 B(  6-O ,  7-H ) :   0.8150 B(  6-O ,  8-H ) :   0.8328
B(  9-O , 10-H ) :   0.8501 B(  9-O , 11-H ) :   0.7932 B( 12-O , 13-H ) :   0.8246
B( 12-O , 14-H ) :   0.7874 B( 15-O , 16-H ) :   0.8408 B( 15-O , 17-H ) :   0.8174
B( 18-O , 19-H ) :   0.8549 B( 18-O , 20-H ) :   0.8234

MP2 TOTAL ENERGY:     -534.247479713 Eh
FINAL SINGLE POINT ENERGY      -534.247479712777

DIPOLE MOMENT
-------------
                                X             Y             Z
Electronic contribution:      0.13031       0.11139      -0.04896
Nuclear contribution   :      1.33081      -0.82469       0.68611
                        -----------------------------------------
Total Dipole Moment    :      1.46112      -0.71329       0.63714
                        -----------------------------------------
Magnitude (a.u.)       :      1.74632
Magnitude (Debye)      :      4.43878

Rotational constants in cm-1:     0.048613     0.018079     0.016763
Rotational constants in MHz :  1457.394446   541.997589   502.537209

                             ****ORCA TERMINATED NORMALLY****
TOTAL RUN TIME: 0 days 0 hours 1 minutes 51 seconds 920 msec
