                         Program Version 4.2.0 -  RELEASE  -
|  1> # 12h2o.su.etal.mol0,1,3,9,10
|  2> ! MP2 def2-TZVP EnGrad TightSCF
|  3>
|  4> %pal
|  5>     nprocs 6
|  6> end
|  7>
|  8> %maxcore 8000
|  9>
| 10> %scf
| 11>     ConvForced true
| 12> end
| 13>
| 14> *xyz 0 1
| 15> O   1.794470000   0.923410000   2.768350000
| 16> H   2.338250000   1.359750000   3.430940000
| 17> H   0.879480000   1.303000000   2.865760000
| 18> O  -1.794470000  -0.923410000   2.768350000
| 19> H  -2.338250000  -1.359750000   3.430940000
| 20> H  -0.879480000  -1.303000000   2.865760000
| 21> O  -1.752130000  -0.741530000  -2.896280000
| 22> H  -2.036450000  -0.920500000  -1.984040000
| 23> H  -0.921210000  -1.242140000  -2.984230000
| 24> O   0.741530000  -1.752130000   2.896280000
| 25> H   0.920500000  -2.036450000   1.984040000
| 26> H   1.242140000  -0.921210000   2.984230000
| 27> O  -0.923410000   1.794470000  -2.768350000
| 28> H  -1.359750000   2.338250000  -3.430940000
| 29> H  -1.303000000   0.879480000  -2.865760000
| 30> *
| 31>
| 32>                          ****END OF INPUT****

CARTESIAN COORDINATES (ANGSTROEM)
---------------------------------
  O      1.794470    0.923410    2.768350
  H      2.338250    1.359750    3.430940
  H      0.879480    1.303000    2.865760
  O     -1.794470   -0.923410    2.768350
  H     -2.338250   -1.359750    3.430940
  H     -0.879480   -1.303000    2.865760
  O     -1.752130   -0.741530   -2.896280
  H     -2.036450   -0.920500   -1.984040
  H     -0.921210   -1.242140   -2.984230
  O      0.741530   -1.752130    2.896280
  H      0.920500   -2.036450    1.984040
  H      1.242140   -0.921210    2.984230
  O     -0.923410    1.794470   -2.768350
  H     -1.359750    2.338250   -3.430940
  H     -1.303000    0.879480   -2.865760

 Total Charge           Charge          ....    0
 Multiplicity           Mult            ....    1
 Number of Electrons    NEL             ....   50
 Basis Dimension        Dim             ....  215

ORBITAL ENERGIES
----------------

  NO   OCC          E(Eh)            E(eV)
   0   2.0000     -20.593825      -560.3865
   1   2.0000     -20.593655      -560.3818
   2   2.0000     -20.571494      -559.7788
   3   2.0000     -20.519166      -558.3549
   4   2.0000     -20.512972      -558.1864
   5   2.0000      -1.378964       -37.5235
   6   2.0000      -1.373160       -37.3656
   7   2.0000      -1.358552       -36.9681
   8   2.0000      -1.301116       -35.4052
   9   2.0000      -1.295410       -35.2499
  10   2.0000      -0.740187       -20.1415
  11   2.0000      -0.736415       -20.0389
  12   2.0000      -0.720131       -19.5958
  13   2.0000      -0.688848       -18.7445
  14   2.0000      -0.686670       -18.6852
  15   2.0000      -0.618811       -16.8387
  16   2.0000      -0.613658       -16.6985
  17   2.0000      -0.592391       -16.1198
  18   2.0000      -0.553748       -15.0682
  19   2.0000      -0.550823       -14.9887
  20   2.0000      -0.533824       -14.5261
  21   2.0000      -0.510096       -13.8804
  22   2.0000      -0.503136       -13.6910
  23   2.0000      -0.469987       -12.7890
  24   2.0000      -0.463279       -12.6065
  25   0.0000       0.105472         2.8700
  26   0.0000       0.116057         3.1581
  27   0.0000       0.150152         4.0858
  28   0.0000       0.173662         4.7256
  29   0.0000       0.180228         4.9042

MULLIKEN ATOMIC CHARGES
-----------------------
   0 O :   -0.702189
   1 H :    0.355390
   2 H :    0.371903
   3 O :   -0.738880
   4 H :    0.325279
   5 H :    0.363568
   6 O :   -0.679443
   7 H :    0.364702
   8 H :    0.357202
   9 O :   -0.699208
  10 H :    0.350066
  11 H :    0.374290
  12 O :   -0.730155
  13 H :    0.323735
  14 H :    0.363739
Sum of atomic charges:   -0.0000000

LOEWDIN ATOMIC CHARGES
----------------------
   0 O :   -0.310535
   1 H :    0.165256
   2 H :    0.193021
   3 O :   -0.376722
   4 H :    0.148267
   5 H :    0.140464
   6 O :   -0.271279
   7 H :    0.177633
   8 H :    0.175881
   9 O :   -0.283340
  10 H :    0.169977
  11 H :    0.153743
  12 O :   -0.371688
  13 H :    0.147815
  14 H :    0.141507

  Mayer bond orders larger than 0.100000
B(  0-O ,  1-H ) :   0.8400 B(  0-O ,  2-H ) :   0.8217 B(  3-O ,  4-H ) :   0.8605
B(  3-O ,  5-H ) :   0.7775 B(  6-O ,  7-H ) :   0.8330 B(  6-O ,  8-H ) :   0.8375
B(  9-O , 10-H ) :   0.8428 B(  9-O , 11-H ) :   0.7962 B( 12-O , 13-H ) :   0.8615
B( 12-O , 14-H ) :   0.7902

MP2 TOTAL ENERGY:     -381.591282275 Eh
FINAL SINGLE POINT ENERGY      -381.591282274582

DIPOLE MOMENT
-------------
                                X             Y             Z
Electronic contribution:      0.25747      -0.10290      -0.07033
Nuclear contribution   :      0.34148      -0.41967       0.63259
                        -----------------------------------------
Total Dipole Moment    :      0.59894      -0.52257       0.56227
                        -----------------------------------------
Magnitude (a.u.)       :      0.97363
Magnitude (Debye)      :      2.47478

Rotational constants in cm-1:     0.066869     0.020006     0.017291
Rotational constants in MHz :  2004.676423   599.765512   518.366893

                             ****ORCA TERMINATED NORMALLY****
TOTAL RUN TIME: 0 days 0 hours 0 minutes 25 seconds 831 msec
