                         Program Version 4.2.0 -  RELEASE  -
|  1> ! MP2 def2-TZVP EnGrad TightSCF FrozenCore
|  2>
|  3> %pal
|  4>     nprocs 12
|  5> end
|  6>
|  7> %maxcore 8000
|  8>
|  9> %scf
| 10>     ConvForced true
| 11> end
| 12>
| 13> *xyz 0 1
| 14> O    -0.9882463134    -1.4993141848    -1.2050494734
| 15> H    -0.0269375584    -1.5645166034    -0.9577418677
| 16> C    -1.0736669391    -1.2385705555    -2.6018112132
| 17> H    -2.1315353381    -1.1202999491    -2.8530478952
| 18> H    -0.6726671377    -2.0775277719    -3.1862210378
| 19> H    -0.5386754418    -0.3229467428    -2.8887459542
| 20> O    -1.5967396353     0.4005078886     0.570834567
| 21> H    -1.4648156892    -0.2856810794    -0.1443592505
| 22> C    -2.9496484454     0.3533829163     1.019741444
| 23> H    -3.0554474169     1.0802483081     1.8289103192
| 24> H    -3.2114279763    -0.6422561188     1.4002524566
| 25> H    -3.647187295      0.6214038201     0.2154775502
| 26> O     0.7262565102    -0.1991504231     1.9489306171
| 27> H    -0.1858028986     0.0108315395     1.6417650866
| 28> C     1.3181321978     1.016802945      2.4200757241
| 29> H     2.3933474167     0.841139926      2.5159717086
| 30> H     0.9234954207     1.2830278469     3.4104451869
| 31> H     1.1410559421     1.8438118632     1.7232616161
| 32> O     1.5611197087    -1.3008045505    -0.3663717609
| 33> H     1.3684324221    -0.8735896476     0.5116393674
| 34> C     2.448857645     -2.3917734448    -0.1547434708
| 35> H     2.6156081453    -2.8770369333    -1.120653251
| 36> H     2.0364293042    -3.1330414275     0.544115321
| 37> H     3.4183099396    -2.0480705225     0.2308026346
| 38> O    -0.0774926562     2.6920562713    -0.1933518397
| 39> H    -0.7154832496     1.986811589      0.0365180881
| 40> C     0.6302355781     2.2648278595    -1.3433670263
| 41> H     1.3941511582     3.0192325634    -1.5568526191
| 42> H    -0.0193223339     2.186700648     -2.2318157364
| 43> H     1.1358314554     1.2973803574    -1.1990313517
| 44> *
| 45>
| 46>                          ****END OF INPUT****

CARTESIAN COORDINATES (ANGSTROEM)
---------------------------------
  O     -0.988246   -1.499314   -1.205049
  H     -0.026938   -1.564517   -0.957742
  C     -1.073667   -1.238571   -2.601811
  H     -2.131535   -1.120300   -2.853048
  H     -0.672667   -2.077528   -3.186221
  H     -0.538675   -0.322947   -2.888746
  O     -1.596740    0.400508    0.570835
  H     -1.464816   -0.285681   -0.144359
  C     -2.949648    0.353383    1.019741
  H     -3.055447    1.080248    1.828910
  H     -3.211428   -0.642256    1.400252
  H     -3.647187    0.621404    0.215478
  O      0.726257   -0.199150    1.948931
  H     -0.185803    0.010832    1.641765
  C      1.318132    1.016803    2.420076
  H      2.393347    0.841140    2.515972
  H      0.923495    1.283028    3.410445
  H      1.141056    1.843812    1.723262
  O      1.561120   -1.300805   -0.366372
  H      1.368432   -0.873590    0.511639
  C      2.448858   -2.391773   -0.154743
  H      2.615608   -2.877037   -1.120653
  H      2.036429   -3.133041    0.544115
  H      3.418310   -2.048071    0.230803
  O     -0.077493    2.692056   -0.193352
  H     -0.715483    1.986812    0.036518
  C      0.630236    2.264828   -1.343367
  H      1.394151    3.019233   -1.556853
  H     -0.019322    2.186701   -2.231816
  H      1.135831    1.297380   -1.199031

 Total Charge           Charge          ....    0
 Multiplicity           Mult            ....    1
 Number of Electrons    NEL             ....   90
 Basis Dimension        Dim             ....  430

ORBITAL ENERGIES
----------------

  NO   OCC          E(Eh)            E(eV)
   0   2.0000     -20.565423      -559.6136
   1   2.0000     -20.558085      -559.4139
   2   2.0000     -20.554327      -559.3117
   3   2.0000     -20.553524      -559.2898
   4   2.0000     -20.528853      -558.6185
   5   2.0000     -11.280168      -306.9490
   6   2.0000     -11.275824      -306.8308
   7   2.0000     -11.273213      -306.7597
   8   2.0000     -11.262030      -306.4554
   9   2.0000     -11.254617      -306.2537
  10   2.0000      -1.375442       -37.4277
  11   2.0000      -1.359562       -36.9956
  12   2.0000      -1.354714       -36.8637
  13   2.0000      -1.340123       -36.4666
  14   2.0000      -1.329771       -36.1849
  15   2.0000      -0.936313       -25.4784
  16   2.0000      -0.927790       -25.2464
  17   2.0000      -0.922623       -25.1059
  18   2.0000      -0.913885       -24.8681
  19   2.0000      -0.902898       -24.5691
  20   2.0000      -0.720256       -19.5992
  21   2.0000      -0.702542       -19.1171
  22   2.0000      -0.695491       -18.9253
  23   2.0000      -0.687756       -18.7148
  24   2.0000      -0.675319       -18.3764
  25   2.0000      -0.625203       -17.0126
  26   2.0000      -0.622061       -16.9271
  27   2.0000      -0.620067       -16.8729
  28   2.0000      -0.615469       -16.7478
  29   2.0000      -0.603182       -16.4134
  30   2.0000      -0.598387       -16.2829
  31   2.0000      -0.595783       -16.2121
  32   2.0000      -0.594091       -16.1660
  33   2.0000      -0.585933       -15.9440
  34   2.0000      -0.572511       -15.5788
  35   2.0000      -0.530321       -14.4308
  36   2.0000      -0.513702       -13.9785
  37   2.0000      -0.507081       -13.7984
  38   2.0000      -0.488342       -13.2885
  39   2.0000      -0.482944       -13.1416
  40   2.0000      -0.457681       -12.4541
  41   2.0000      -0.452605       -12.3160
  42   2.0000      -0.450490       -12.2584
  43   2.0000      -0.447561       -12.1787
  44   2.0000      -0.424779       -11.5588
  45   0.0000       0.127318         3.4645
  46   0.0000       0.147769         4.0210
  47   0.0000       0.154727         4.2103
  48   0.0000       0.167071         4.5462
  49   0.0000       0.184848         5.0300

MULLIKEN ATOMIC CHARGES
-----------------------
   0 O :   -0.554127
   1 H :    0.365469
   2 C :   -0.172991
   3 H :    0.128774
   4 H :    0.123937
   5 H :    0.115669
   6 O :   -0.610304
   7 H :    0.382521
   8 C :   -0.169298
   9 H :    0.136918
  10 H :    0.132110
  11 H :    0.125199
  12 O :   -0.550040
  13 H :    0.356765
  14 C :   -0.199664
  15 H :    0.120824
  16 H :    0.118133
  17 H :    0.159211
  18 O :   -0.562651
  19 H :    0.369726
  20 C :   -0.172177
  21 H :    0.126142
  22 H :    0.124037
  23 H :    0.120777
  24 O :   -0.515741
  25 H :    0.344102
  26 C :   -0.188188
  27 H :    0.122619
  28 H :    0.101543
  29 H :    0.120702
Sum of atomic charges:   -0.0000000

LOEWDIN ATOMIC CHARGES
----------------------
   0 O :   -0.085355
   1 H :    0.165276
   2 C :   -0.382031
   3 H :    0.109116
   4 H :    0.104058
   5 H :    0.098838
   6 O :   -0.094517
   7 H :    0.165689
   8 C :   -0.376354
   9 H :    0.111590
  10 H :    0.105824
  11 H :    0.104320
  12 O :   -0.090505
  13 H :    0.164056
  14 C :   -0.377386
  15 H :    0.106626
  16 H :    0.101590
  17 H :    0.106359
  18 O :   -0.090390
  19 H :    0.165474
  20 C :   -0.382527
  21 H :    0.108272
  22 H :    0.101494
  23 H :    0.103260
  24 O :   -0.096379
  25 H :    0.160400
  26 C :   -0.403227
  27 H :    0.107474
  28 H :    0.093071
  29 H :    0.095883

  Mayer bond orders larger than 0.100000
B(  0-O ,  1-H ) :   0.7426 B(  0-O ,  2-C ) :   0.8827 B(  0-O ,  7-H ) :   0.1337
B(  1-H , 18-O ) :   0.1270 B(  2-C ,  3-H ) :   0.9428 B(  2-C ,  4-H ) :   0.9409
B(  2-C ,  5-H ) :   0.9325 B(  6-O ,  7-H ) :   0.7090 B(  6-O ,  8-C ) :   0.8556
B(  8-C ,  9-H ) :   0.9423 B(  8-C , 10-H ) :   0.9382 B(  8-C , 11-H ) :   0.9383
B( 12-O , 13-H ) :   0.7752 B( 12-O , 14-C ) :   0.8639 B( 12-O , 19-H ) :   0.1266
B( 14-C , 15-H ) :   0.9416 B( 14-C , 16-H ) :   0.9412 B( 14-C , 17-H ) :   0.9216
B( 18-O , 19-H ) :   0.7323 B( 18-O , 20-C ) :   0.8869 B( 20-C , 21-H ) :   0.9423
B( 20-C , 22-H ) :   0.9388 B( 20-C , 23-H ) :   0.9380 B( 24-O , 25-H ) :   0.8071
B( 24-O , 26-C ) :   0.9201 B( 26-C , 27-H ) :   0.9396 B( 26-C , 28-H ) :   0.9387
B( 26-C , 29-H ) :   0.9304

MP2 TOTAL ENERGY:     -577.602716788 Eh
FINAL SINGLE POINT ENERGY      -577.602716788020

DIPOLE MOMENT
-------------
                                X             Y             Z
Electronic contribution:     -0.97589       0.10528       1.91456
Nuclear contribution   :      0.79280      -0.81544      -2.18118
                        -----------------------------------------
Total Dipole Moment    :     -0.18309      -0.71017      -0.26662
                        -----------------------------------------
Magnitude (a.u.)       :      0.78035
Magnitude (Debye)      :      1.98349

Rotational constants in cm-1:     0.025236     0.023162     0.018776
Rotational constants in MHz :   756.542091   694.382916   562.901722

                             ****ORCA TERMINATED NORMALLY****
TOTAL RUN TIME: 0 days 0 hours 7 minutes 45 seconds 408 msec
