                         Program Version 4.2.0 -  RELEASE  -
|  1> # 12mecn.remya.etal.2.mol2,9
|  2> ! MP2 def2-TZVP EnGrad TightSCF
|  3>
|  4> %pal
|  5>     nprocs 6
|  6> end
|  7>
|  8> %maxcore 8000
|  9>
| 10> %scf
| 11>     ConvForced true
| 12> end
| 13>
| 14> *xyz 0 1
| 15> C  -4.219070000  -3.477410000  -1.501740000
| 16> H  -3.251530000  -3.803540000  -1.893830000
| 17> H  -4.452920000  -2.481700000  -1.890840000
| 18> H  -4.992170000  -4.178130000  -1.824640000
| 19> C  -4.154550000  -3.418790000  -0.058340000
| 20> N  -4.091140000  -3.354840000   1.104432000
| 21> C   0.923766000   4.000693000  -1.575910000
| 22> H   0.011949000   4.478423000  -1.939550000
| 23> H   0.947903000   2.966558000  -1.929960000
| 24> H   1.805950000   4.519548000  -1.956520000
| 25> C   0.942834000   3.994846000  -0.131200000
| 26> N   0.960035000   3.982544000   1.035639000
| 27> *
| 28>
| 29>                          ****END OF INPUT****

CARTESIAN COORDINATES (ANGSTROEM)
---------------------------------
  C     -4.219070   -3.477410   -1.501740
  H     -3.251530   -3.803540   -1.893830
  H     -4.452920   -2.481700   -1.890840
  H     -4.992170   -4.178130   -1.824640
  C     -4.154550   -3.418790   -0.058340
  N     -4.091140   -3.354840    1.104432
  C      0.923766    4.000693   -1.575910
  H      0.011949    4.478423   -1.939550
  H      0.947903    2.966558   -1.929960
  H      1.805950    4.519548   -1.956520
  C      0.942834    3.994846   -0.131200
  N      0.960035    3.982544    1.035639

 Total Charge           Charge          ....    0
 Multiplicity           Mult            ....    1
 Number of Electrons    NEL             ....   44
 Basis Dimension        Dim             ....  222

ORBITAL ENERGIES
----------------

  NO   OCC          E(Eh)            E(eV)
   0   2.0000     -15.573432      -423.7746
   1   2.0000     -15.573245      -423.7695
   2   2.0000     -11.286237      -307.1141
   3   2.0000     -11.285525      -307.0948
   4   2.0000     -11.280188      -306.9495
   5   2.0000     -11.279990      -306.9441
   6   2.0000      -1.214961       -33.0608
   7   2.0000      -1.214275       -33.0421
   8   2.0000      -1.044931       -28.4340
   9   2.0000      -1.044546       -28.4235
  10   2.0000      -0.701335       -19.0843
  11   2.0000      -0.701036       -19.0762
  12   2.0000      -0.634839       -17.2749
  13   2.0000      -0.632882       -17.2216
  14   2.0000      -0.632143       -17.2015
  15   2.0000      -0.630942       -17.1688
  16   2.0000      -0.556000       -15.1295
  17   2.0000      -0.555633       -15.1195
  18   2.0000      -0.458115       -12.4659
  19   2.0000      -0.457965       -12.4619
  20   2.0000      -0.457821       -12.4579
  21   2.0000      -0.457036       -12.4366
  22   0.0000       0.117828         3.2063
  23   0.0000       0.118170         3.2156
  24   0.0000       0.170389         4.6365
  25   0.0000       0.170571         4.6415
  26   0.0000       0.170698         4.6449

MULLIKEN ATOMIC CHARGES
-----------------------
   0 C :   -0.280885
   1 H :    0.171682
   2 H :    0.171245
   3 H :    0.172433
   4 C :   -0.145794
   5 N :   -0.088682
   6 C :   -0.279419
   7 H :    0.171918
   8 H :    0.170720
   9 H :    0.172292
  10 C :   -0.145608
  11 N :   -0.089904
Sum of atomic charges:    0.0000000

LOEWDIN ATOMIC CHARGES
----------------------
   0 C :   -0.284472
   1 H :    0.152432
   2 H :    0.152663
   3 H :    0.151065
   4 C :   -0.219730
   5 N :    0.048043
   6 C :   -0.283999
   7 H :    0.151318
   8 H :    0.152901
   9 H :    0.151870
  10 C :   -0.219745
  11 N :    0.047656

  Mayer bond orders larger than 0.100000
B(  0-C ,  1-H ) :   0.9167 B(  0-C ,  2-H ) :   0.9169 B(  0-C ,  3-H ) :   0.9166
B(  0-C ,  4-C ) :   0.9023 B(  4-C ,  5-N ) :   2.8357 B(  6-C ,  7-H ) :   0.9165
B(  6-C ,  8-H ) :   0.9175 B(  6-C ,  9-H ) :   0.9165 B(  6-C , 10-C ) :   0.9018
B( 10-C , 11-N ) :   2.8354

MP2 TOTAL ENERGY:     -264.965787101 Eh
FINAL SINGLE POINT ENERGY      -264.965787100785

DIPOLE MOMENT
-------------
                                X             Y             Z
Electronic contribution:      0.17043       0.13624       6.24898
Nuclear contribution   :     -0.26507      -0.20312      -9.28825
                        -----------------------------------------
Total Dipole Moment    :     -0.09464      -0.06688      -3.03927
                        -----------------------------------------
Magnitude (a.u.)       :      3.04148
Magnitude (Debye)      :      7.73082

Rotational constants in cm-1:     0.154421     0.010108     0.009521
Rotational constants in MHz :  4629.420550   303.022470   285.440749

                             ****ORCA TERMINATED NORMALLY****
TOTAL RUN TIME: 0 days 0 hours 0 minutes 33 seconds 826 msec
