                         Program Version 4.2.0 -  RELEASE  -
|  1> # 12mecn.remya.etal.2.mol2,3,11
|  2> ! MP2 def2-TZVP EnGrad TightSCF
|  3>
|  4> %pal
|  5>     nprocs 6
|  6> end
|  7>
|  8> %maxcore 8000
|  9>
| 10> %scf
| 11>     ConvForced true
| 12> end
| 13>
| 14> *xyz 0 1
| 15> C  -4.219070000  -3.477410000  -1.501740000
| 16> H  -3.251530000  -3.803540000  -1.893830000
| 17> H  -4.452920000  -2.481700000  -1.890840000
| 18> H  -4.992170000  -4.178130000  -1.824640000
| 19> C  -4.154550000  -3.418790000  -0.058340000
| 20> N  -4.091140000  -3.354840000   1.104432000
| 21> C  -5.181310000   2.853865000  -1.626100000
| 22> H  -5.488260000   3.811434000  -2.053310000
| 23> H  -5.857590000   2.068112000  -1.968630000
| 24> H  -4.170750000   2.611402000  -1.966640000
| 25> C  -5.187260000   2.919160000  -0.181450000
| 26> N  -5.181700000   2.970641000   0.983640000
| 27> C   4.214163000   3.378139000   1.593627000
| 28> H   3.242643000   3.657109000   2.012358000
| 29> H   4.969258000   4.086643000   1.941290000
| 30> H   4.482966000   2.372549000   1.931698000
| 31> C   4.130759000   3.388436000   0.150192000
| 32> N   4.050180000   3.381449000  -1.013420000
| 33> *
| 34>
| 35>                          ****END OF INPUT****

CARTESIAN COORDINATES (ANGSTROEM)
---------------------------------
  C     -4.219070   -3.477410   -1.501740
  H     -3.251530   -3.803540   -1.893830
  H     -4.452920   -2.481700   -1.890840
  H     -4.992170   -4.178130   -1.824640
  C     -4.154550   -3.418790   -0.058340
  N     -4.091140   -3.354840    1.104432
  C     -5.181310    2.853865   -1.626100
  H     -5.488260    3.811434   -2.053310
  H     -5.857590    2.068112   -1.968630
  H     -4.170750    2.611402   -1.966640
  C     -5.187260    2.919160   -0.181450
  N     -5.181700    2.970641    0.983640
  C      4.214163    3.378139    1.593627
  H      3.242643    3.657109    2.012358
  H      4.969258    4.086643    1.941290
  H      4.482966    2.372549    1.931698
  C      4.130759    3.388436    0.150192
  N      4.050180    3.381449   -1.013420

 Total Charge           Charge          ....    0
 Multiplicity           Mult            ....    1
 Number of Electrons    NEL             ....   66
 Basis Dimension        Dim             ....  333

ORBITAL ENERGIES
----------------

  NO   OCC          E(Eh)            E(eV)
   0   2.0000     -15.573517      -423.7769
   1   2.0000     -15.573122      -423.7662
   2   2.0000     -15.573045      -423.7641
   3   2.0000     -11.286999      -307.1349
   4   2.0000     -11.286079      -307.1098
   5   2.0000     -11.284246      -307.0599
   6   2.0000     -11.280289      -306.9523
   7   2.0000     -11.280061      -306.9461
   8   2.0000     -11.279739      -306.9373
   9   2.0000      -1.214913       -33.0595
  10   2.0000      -1.214737       -33.0547
  11   2.0000      -1.214501       -33.0482
  12   2.0000      -1.045095       -28.4385
  13   2.0000      -1.044594       -28.4248
  14   2.0000      -1.042950       -28.3801
  15   2.0000      -0.701920       -19.1002
  16   2.0000      -0.701825       -19.0976
  17   2.0000      -0.699915       -19.0456
  18   2.0000      -0.633674       -17.2431
  19   2.0000      -0.633504       -17.2385
  20   2.0000      -0.632792       -17.2191
  21   2.0000      -0.631312       -17.1789
  22   2.0000      -0.631012       -17.1707
  23   2.0000      -0.630134       -17.1468
  24   2.0000      -0.556160       -15.1339
  25   2.0000      -0.555872       -15.1260
  26   2.0000      -0.555582       -15.1181
  27   2.0000      -0.458101       -12.4656
  28   2.0000      -0.457976       -12.4622
  29   2.0000      -0.457834       -12.4583
  30   2.0000      -0.457817       -12.4578
  31   2.0000      -0.457698       -12.4546
  32   2.0000      -0.457408       -12.4467
  33   0.0000       0.104664         2.8481
  34   0.0000       0.120328         3.2743
  35   0.0000       0.125677         3.4198
  36   0.0000       0.165608         4.5064
  37   0.0000       0.170338         4.6351

MULLIKEN ATOMIC CHARGES
-----------------------
   0 C :   -0.279387
   1 H :    0.173170
   2 H :    0.166436
   3 H :    0.172700
   4 C :   -0.145900
   5 N :   -0.087012
   6 C :   -0.283053
   7 H :    0.173446
   8 H :    0.168819
   9 H :    0.172891
  10 C :   -0.144662
  11 N :   -0.087446
  12 C :   -0.280215
  13 H :    0.174372
  14 H :    0.171961
  15 H :    0.172721
  16 C :   -0.145275
  17 N :   -0.093564
Sum of atomic charges:    0.0000000

LOEWDIN ATOMIC CHARGES
----------------------
   0 C :   -0.284617
   1 H :    0.152831
   2 H :    0.151321
   3 H :    0.151029
   4 C :   -0.220002
   5 N :    0.049441
   6 C :   -0.284813
   7 H :    0.151737
   8 H :    0.150250
   9 H :    0.152914
  10 C :   -0.219289
  11 N :    0.049200
  12 C :   -0.283572
  13 H :    0.153703
  14 H :    0.151106
  15 H :    0.153344
  16 C :   -0.218977
  17 N :    0.044396

  Mayer bond orders larger than 0.100000
B(  0-C ,  1-H ) :   0.9166 B(  0-C ,  2-H ) :   0.9179 B(  0-C ,  3-H ) :   0.9168
B(  0-C ,  4-C ) :   0.9023 B(  4-C ,  5-N ) :   2.8345 B(  6-C ,  7-H ) :   0.9159
B(  6-C ,  8-H ) :   0.9180 B(  6-C ,  9-H ) :   0.9172 B(  6-C , 10-C ) :   0.9020
B( 10-C , 11-N ) :   2.8349 B( 12-C , 13-H ) :   0.9158 B( 12-C , 14-H ) :   0.9165
B( 12-C , 15-H ) :   0.9161 B( 12-C , 16-C ) :   0.9022 B( 16-C , 17-N ) :   2.8386

MP2 TOTAL ENERGY:     -397.449057774 Eh
FINAL SINGLE POINT ENERGY      -397.449057773890

DIPOLE MOMENT
-------------
                                X             Y             Z
Electronic contribution:     -0.06336       0.30309       3.17476
Nuclear contribution   :      0.09037      -0.44706      -4.65216
                        -----------------------------------------
Total Dipole Moment    :      0.02701      -0.14397      -1.47740
                        -----------------------------------------
Magnitude (a.u.)       :      1.48465
Magnitude (Debye)      :      3.77367

Rotational constants in cm-1:     0.017874     0.006197     0.005033
Rotational constants in MHz :   535.849981   185.770556   150.889128

                             ****ORCA TERMINATED NORMALLY****
TOTAL RUN TIME: 0 days 0 hours 1 minutes 39 seconds 165 msec
