                         Program Version 4.2.0 -  RELEASE  -
|  1> # 12mecn.remya.etal.2.mol0,2,9
|  2> ! MP2 def2-TZVP EnGrad TightSCF
|  3>
|  4> %pal
|  5>     nprocs 6
|  6> end
|  7>
|  8> %maxcore 8000
|  9>
| 10> %scf
| 11>     ConvForced true
| 12> end
| 13>
| 14> *xyz 0 1
| 15> C  -0.869520000  -3.929380000   1.700199000
| 16> H  -0.057420000  -3.268850000   2.015352000
| 17> H  -0.697530000  -4.930670000   2.101524000
| 18> H  -1.821490000  -3.546590000   2.077146000
| 19> C  -0.916080000  -3.969960000   0.256749000
| 20> N  -0.955390000  -3.995980000  -0.909290000
| 21> C  -4.219070000  -3.477410000  -1.501740000
| 22> H  -3.251530000  -3.803540000  -1.893830000
| 23> H  -4.452920000  -2.481700000  -1.890840000
| 24> H  -4.992170000  -4.178130000  -1.824640000
| 25> C  -4.154550000  -3.418790000  -0.058340000
| 26> N  -4.091140000  -3.354840000   1.104432000
| 27> C   0.923766000   4.000693000  -1.575910000
| 28> H   0.011949000   4.478423000  -1.939550000
| 29> H   0.947903000   2.966558000  -1.929960000
| 30> H   1.805950000   4.519548000  -1.956520000
| 31> C   0.942834000   3.994846000  -0.131200000
| 32> N   0.960035000   3.982544000   1.035639000
| 33> *
| 34>
| 35>                          ****END OF INPUT****

CARTESIAN COORDINATES (ANGSTROEM)
---------------------------------
  C     -0.869520   -3.929380    1.700199
  H     -0.057420   -3.268850    2.015352
  H     -0.697530   -4.930670    2.101524
  H     -1.821490   -3.546590    2.077146
  C     -0.916080   -3.969960    0.256749
  N     -0.955390   -3.995980   -0.909290
  C     -4.219070   -3.477410   -1.501740
  H     -3.251530   -3.803540   -1.893830
  H     -4.452920   -2.481700   -1.890840
  H     -4.992170   -4.178130   -1.824640
  C     -4.154550   -3.418790   -0.058340
  N     -4.091140   -3.354840    1.104432
  C      0.923766    4.000693   -1.575910
  H      0.011949    4.478423   -1.939550
  H      0.947903    2.966558   -1.929960
  H      1.805950    4.519548   -1.956520
  C      0.942834    3.994846   -0.131200
  N      0.960035    3.982544    1.035639

 Total Charge           Charge          ....    0
 Multiplicity           Mult            ....    1
 Number of Electrons    NEL             ....   66
 Basis Dimension        Dim             ....  333

ORBITAL ENERGIES
----------------

  NO   OCC          E(Eh)            E(eV)
   0   2.0000     -15.573261      -423.7700
   1   2.0000     -15.571473      -423.7213
   2   2.0000     -15.570829      -423.7038
   3   2.0000     -11.284665      -307.0714
   4   2.0000     -11.283321      -307.0348
   5   2.0000     -11.282984      -307.0256
   6   2.0000     -11.280276      -306.9519
   7   2.0000     -11.272763      -306.7475
   8   2.0000     -11.270202      -306.6778
   9   2.0000      -1.218365       -33.1534
  10   2.0000      -1.214454       -33.0470
  11   2.0000      -1.214011       -33.0349
  12   2.0000      -1.044323       -28.4175
  13   2.0000      -1.036473       -28.2039
  14   2.0000      -1.033380       -28.1197
  15   2.0000      -0.700485       -19.0612
  16   2.0000      -0.695351       -18.9215
  17   2.0000      -0.690486       -18.7891
  18   2.0000      -0.634118       -17.2552
  19   2.0000      -0.630877       -17.1670
  20   2.0000      -0.630114       -17.1463
  21   2.0000      -0.623129       -16.9562
  22   2.0000      -0.620699       -16.8901
  23   2.0000      -0.614238       -16.7143
  24   2.0000      -0.559324       -15.2200
  25   2.0000      -0.556013       -15.1299
  26   2.0000      -0.555965       -15.1286
  27   2.0000      -0.460241       -12.5238
  28   2.0000      -0.459580       -12.5058
  29   2.0000      -0.457971       -12.4620
  30   2.0000      -0.457176       -12.4404
  31   2.0000      -0.456822       -12.4308
  32   2.0000      -0.455652       -12.3989
  33   0.0000       0.119303         3.2464
  34   0.0000       0.128344         3.4924
  35   0.0000       0.142880         3.8880
  36   0.0000       0.170094         4.6285
  37   0.0000       0.171350         4.6627

MULLIKEN ATOMIC CHARGES
-----------------------
   0 C :   -0.284184
   1 H :    0.168220
   2 H :    0.166275
   3 H :    0.206203
   4 C :   -0.103368
   5 N :   -0.153266
   6 C :   -0.287224
   7 H :    0.205400
   8 H :    0.165554
   9 H :    0.166937
  10 C :   -0.100696
  11 N :   -0.149851
  12 C :   -0.279356
  13 H :    0.171986
  14 H :    0.173156
  15 H :    0.172102
  16 C :   -0.145525
  17 N :   -0.092364
Sum of atomic charges:    0.0000000

LOEWDIN ATOMIC CHARGES
----------------------
   0 C :   -0.281707
   1 H :    0.152034
   2 H :    0.151831
   3 H :    0.157407
   4 C :   -0.207699
   5 N :    0.027326
   6 C :   -0.282627
   7 H :    0.156879
   8 H :    0.152715
   9 H :    0.149859
  10 C :   -0.207157
  11 N :    0.031140
  12 C :   -0.283504
  13 H :    0.151501
  14 H :    0.153728
  15 H :    0.151936
  16 C :   -0.219381
  17 N :    0.045719

  Mayer bond orders larger than 0.100000
B(  0-C ,  1-H ) :   0.9155 B(  0-C ,  2-H ) :   0.9146 B(  0-C ,  3-H ) :   0.9010
B(  0-C ,  4-C ) :   0.9016 B(  4-C ,  5-N ) :   2.7742 B(  6-C ,  7-H ) :   0.9015
B(  6-C ,  8-H ) :   0.9149 B(  6-C ,  9-H ) :   0.9164 B(  6-C , 10-C ) :   0.9025
B( 10-C , 11-N ) :   2.7688 B( 12-C , 13-H ) :   0.9163 B( 12-C , 14-H ) :   0.9168
B( 12-C , 15-H ) :   0.9164 B( 12-C , 16-C ) :   0.9017 B( 16-C , 17-N ) :   2.8370

MP2 TOTAL ENERGY:     -397.459483796 Eh
FINAL SINGLE POINT ENERGY      -397.459483795880

DIPOLE MOMENT
-------------
                                X             Y             Z
Electronic contribution:      0.06893       0.04377       3.13962
Nuclear contribution   :     -0.11660      -0.06941      -4.65078
                        -----------------------------------------
Total Dipole Moment    :     -0.04767      -0.02564      -1.51116
                        -----------------------------------------
Magnitude (a.u.)       :      1.51213
Magnitude (Debye)      :      3.84353

Rotational constants in cm-1:     0.044461     0.007994     0.007624
Rotational constants in MHz :  1332.905578   239.648874   228.547852

                             ****ORCA TERMINATED NORMALLY****
TOTAL RUN TIME: 0 days 0 hours 2 minutes 37 seconds 729 msec
