                         Program Version 4.2.0 -  RELEASE  -
|  1> # 12h2o.su.etal.mol0,2,3,5,9,11
|  2> ! MP2 def2-TZVP EnGrad TightSCF
|  3>
|  4> %pal
|  5>     nprocs 6
|  6> end
|  7>
|  8> %maxcore 8000
|  9>
| 10> %scf
| 11>     ConvForced true
| 12> end
| 13>
| 14> *xyz 0 1
| 15> O   1.794470000   0.923410000   2.768350000
| 16> H   2.338250000   1.359750000   3.430940000
| 17> H   0.879480000   1.303000000   2.865760000
| 18> O   0.923410000  -1.794470000  -2.768350000
| 19> H   1.359750000  -2.338250000  -3.430940000
| 20> H   1.303000000  -0.879480000  -2.865760000
| 21> O  -1.752130000  -0.741530000  -2.896280000
| 22> H  -2.036450000  -0.920500000  -1.984040000
| 23> H  -0.921210000  -1.242140000  -2.984230000
| 24> O   0.885520000  -1.737840000   0.052730000
| 25> H   1.284090000  -0.839590000   0.017130000
| 26> H   1.032320000  -2.090180000  -0.841890000
| 27> O   0.741530000  -1.752130000   2.896280000
| 28> H   0.920500000  -2.036450000   1.984040000
| 29> H   1.242140000  -0.921210000   2.984230000
| 30> O  -0.741530000   1.752130000   2.896280000
| 31> H  -0.920500000   2.036450000   1.984040000
| 32> H  -1.242140000   0.921210000   2.984230000
| 33> *
| 34>
| 35>                          ****END OF INPUT****

CARTESIAN COORDINATES (ANGSTROEM)
---------------------------------
  O      1.794470    0.923410    2.768350
  H      2.338250    1.359750    3.430940
  H      0.879480    1.303000    2.865760
  O      0.923410   -1.794470   -2.768350
  H      1.359750   -2.338250   -3.430940
  H      1.303000   -0.879480   -2.865760
  O     -1.752130   -0.741530   -2.896280
  H     -2.036450   -0.920500   -1.984040
  H     -0.921210   -1.242140   -2.984230
  O      0.885520   -1.737840    0.052730
  H      1.284090   -0.839590    0.017130
  H      1.032320   -2.090180   -0.841890
  O      0.741530   -1.752130    2.896280
  H      0.920500   -2.036450    1.984040
  H      1.242140   -0.921210    2.984230
  O     -0.741530    1.752130    2.896280
  H     -0.920500    2.036450    1.984040
  H     -1.242140    0.921210    2.984230

 Total Charge           Charge          ....    0
 Multiplicity           Mult            ....    1
 Number of Electrons    NEL             ....   60
 Basis Dimension        Dim             ....  258

ORBITAL ENERGIES
----------------

  NO   OCC          E(Eh)            E(eV)
   0   2.0000     -20.624332      -561.2166
   1   2.0000     -20.599001      -560.5273
   2   2.0000     -20.561547      -559.5081
   3   2.0000     -20.544524      -559.0449
   4   2.0000     -20.542176      -558.9810
   5   2.0000     -20.496191      -557.7297
   6   2.0000      -1.404468       -38.2175
   7   2.0000      -1.384753       -37.6811
   8   2.0000      -1.342925       -36.5428
   9   2.0000      -1.328610       -36.1533
  10   2.0000      -1.324695       -36.0468
  11   2.0000      -1.281301       -34.8660
  12   2.0000      -0.770141       -20.9566
  13   2.0000      -0.741343       -20.1730
  14   2.0000      -0.714006       -19.4291
  15   2.0000      -0.713202       -19.4072
  16   2.0000      -0.696255       -18.9461
  17   2.0000      -0.658627       -17.9221
  18   2.0000      -0.640579       -17.4310
  19   2.0000      -0.623617       -16.9695
  20   2.0000      -0.596217       -16.2239
  21   2.0000      -0.578619       -15.7450
  22   2.0000      -0.566964       -15.4279
  23   2.0000      -0.548799       -14.9336
  24   2.0000      -0.531862       -14.4727
  25   2.0000      -0.520943       -14.1756
  26   2.0000      -0.505176       -13.7465
  27   2.0000      -0.489717       -13.3259
  28   2.0000      -0.488376       -13.2894
  29   2.0000      -0.446516       -12.1503
  30   0.0000       0.083318         2.2672
  31   0.0000       0.108552         2.9539
  32   0.0000       0.151839         4.1317
  33   0.0000       0.160130         4.3574
  34   0.0000       0.168593         4.5877

MULLIKEN ATOMIC CHARGES
-----------------------
   0 O :   -0.738903
   1 H :    0.339535
   2 H :    0.377185
   3 O :   -0.712806
   4 H :    0.368146
   5 H :    0.368236
   6 O :   -0.704462
   7 H :    0.334996
   8 H :    0.354542
   9 O :   -0.707930
  10 H :    0.334402
  11 H :    0.369016
  12 O :   -0.737630
  13 H :    0.365760
  14 H :    0.345332
  15 O :   -0.686091
  16 H :    0.357584
  17 H :    0.373087
Sum of atomic charges:    0.0000000

LOEWDIN ATOMIC CHARGES
----------------------
   0 O :   -0.341629
   1 H :    0.154923
   2 H :    0.144604
   3 O :   -0.286437
   4 H :    0.169759
   5 H :    0.191044
   6 O :   -0.346680
   7 H :    0.162580
   8 H :    0.145085
   9 O :   -0.324498
  10 H :    0.168267
  11 H :    0.149894
  12 O :   -0.360986
  13 H :    0.148527
  14 H :    0.139888
  15 O :   -0.270288
  16 H :    0.174482
  17 H :    0.181467

  Mayer bond orders larger than 0.100000
B(  0-O ,  1-H ) :   0.8495 B(  0-O ,  2-H ) :   0.7666 B(  3-O ,  4-H ) :   0.8297
B(  3-O ,  5-H ) :   0.8226 B(  6-O ,  7-H ) :   0.8539 B(  6-O ,  8-H ) :   0.8275
B(  9-O , 10-H ) :   0.8458 B(  9-O , 11-H ) :   0.8151 B( 12-O , 13-H ) :   0.8255
B( 12-O , 14-H ) :   0.8215 B( 15-O , 16-H ) :   0.8377 B( 15-O , 17-H ) :   0.8230

MP2 TOTAL ENERGY:     -457.916957286 Eh
FINAL SINGLE POINT ENERGY      -457.916957286335

DIPOLE MOMENT
-------------
                                X             Y             Z
Electronic contribution:     -0.29691      -0.00621      -0.07149
Nuclear contribution   :      1.27908       0.87687      -1.46039
                        -----------------------------------------
Total Dipole Moment    :      0.98217       0.87066      -1.53187
                        -----------------------------------------
Magnitude (a.u.)       :      2.01726
Magnitude (Debye)      :      5.12747

Rotational constants in cm-1:     0.060097     0.019476     0.016813
Rotational constants in MHz :  1801.663241   583.881632   504.026733

                             ****ORCA TERMINATED NORMALLY****
TOTAL RUN TIME: 0 days 0 hours 1 minutes 19 seconds 19 msec
