                         Program Version 4.2.0 -  RELEASE  -
|  1> # 12mecn.remya.etal.2.mol0,1,2
|  2> ! MP2 def2-TZVP EnGrad TightSCF
|  3>
|  4> %pal
|  5>     nprocs 6
|  6> end
|  7>
|  8> %maxcore 8000
|  9>
| 10> %scf
| 11>     ConvForced true
| 12> end
| 13>
| 14> *xyz 0 1
| 15> C  -0.869520000  -3.929380000   1.700199000
| 16> H  -0.057420000  -3.268850000   2.015352000
| 17> H  -0.697530000  -4.930670000   2.101524000
| 18> H  -1.821490000  -3.546590000   2.077146000
| 19> C  -0.916080000  -3.969960000   0.256749000
| 20> N  -0.955390000  -3.995980000  -0.909290000
| 21> C  -4.697980000  -0.249690000   1.746215000
| 22> H  -4.927570000   0.755530000   2.111799000
| 23> H  -3.709180000  -0.561560000   2.093253000
| 24> H  -5.432280000  -0.961520000   2.128066000
| 25> C  -4.714100000  -0.247110000   0.301670000
| 26> N  -4.729750000  -0.234960000  -0.865260000
| 27> C  -4.219070000  -3.477410000  -1.501740000
| 28> H  -3.251530000  -3.803540000  -1.893830000
| 29> H  -4.452920000  -2.481700000  -1.890840000
| 30> H  -4.992170000  -4.178130000  -1.824640000
| 31> C  -4.154550000  -3.418790000  -0.058340000
| 32> N  -4.091140000  -3.354840000   1.104432000
| 33> *
| 34>
| 35>                          ****END OF INPUT****

CARTESIAN COORDINATES (ANGSTROEM)
---------------------------------
  C     -0.869520   -3.929380    1.700199
  H     -0.057420   -3.268850    2.015352
  H     -0.697530   -4.930670    2.101524
  H     -1.821490   -3.546590    2.077146
  C     -0.916080   -3.969960    0.256749
  N     -0.955390   -3.995980   -0.909290
  C     -4.697980   -0.249690    1.746215
  H     -4.927570    0.755530    2.111799
  H     -3.709180   -0.561560    2.093253
  H     -5.432280   -0.961520    2.128066
  C     -4.714100   -0.247110    0.301670
  N     -4.729750   -0.234960   -0.865260
  C     -4.219070   -3.477410   -1.501740
  H     -3.251530   -3.803540   -1.893830
  H     -4.452920   -2.481700   -1.890840
  H     -4.992170   -4.178130   -1.824640
  C     -4.154550   -3.418790   -0.058340
  N     -4.091140   -3.354840    1.104432

 Total Charge           Charge          ....    0
 Multiplicity           Mult            ....    1
 Number of Electrons    NEL             ....   66
 Basis Dimension        Dim             ....  333

ORBITAL ENERGIES
----------------

  NO   OCC          E(Eh)            E(eV)
   0   2.0000     -15.571024      -423.7091
   1   2.0000     -15.570696      -423.7002
   2   2.0000     -15.569302      -423.6622
   3   2.0000     -11.285511      -307.0944
   4   2.0000     -11.282203      -307.0044
   5   2.0000     -11.282114      -307.0019
   6   2.0000     -11.275620      -306.8252
   7   2.0000     -11.273908      -306.7786
   8   2.0000     -11.259110      -306.3760
   9   2.0000      -1.219994       -33.1977
  10   2.0000      -1.215224       -33.0679
  11   2.0000      -1.213143       -33.0113
  12   2.0000      -1.037625       -28.2352
  13   2.0000      -1.037118       -28.2214
  14   2.0000      -1.025898       -27.9161
  15   2.0000      -0.695587       -18.9279
  16   2.0000      -0.694342       -18.8940
  17   2.0000      -0.685246       -18.6465
  18   2.0000      -0.631038       -17.1714
  19   2.0000      -0.630178       -17.1480
  20   2.0000      -0.624341       -16.9892
  21   2.0000      -0.621616       -16.9150
  22   2.0000      -0.610880       -16.6229
  23   2.0000      -0.608671       -16.5628
  24   2.0000      -0.560852       -15.2616
  25   2.0000      -0.555631       -15.1195
  26   2.0000      -0.555455       -15.1147
  27   2.0000      -0.462880       -12.5956
  28   2.0000      -0.459322       -12.4988
  29   2.0000      -0.458113       -12.4659
  30   2.0000      -0.457010       -12.4359
  31   2.0000      -0.455952       -12.4071
  32   2.0000      -0.452984       -12.3263
  33   0.0000       0.117144         3.1876
  34   0.0000       0.142331         3.8730
  35   0.0000       0.156549         4.2599
  36   0.0000       0.164551         4.4777
  37   0.0000       0.173431         4.7193

MULLIKEN ATOMIC CHARGES
-----------------------
   0 C :   -0.286911
   1 H :    0.166800
   2 H :    0.168748
   3 H :    0.197240
   4 C :   -0.103423
   5 N :   -0.143178
   6 C :   -0.255853
   7 H :    0.173266
   8 H :    0.166020
   9 H :    0.179153
  10 C :   -0.119443
  11 N :   -0.142311
  12 C :   -0.294146
  13 H :    0.200512
  14 H :    0.200925
  15 H :    0.160394
  16 C :   -0.064952
  17 N :   -0.202838
Sum of atomic charges:   -0.0000000

LOEWDIN ATOMIC CHARGES
----------------------
   0 C :   -0.284121
   1 H :    0.150764
   2 H :    0.152091
   3 H :    0.154196
   4 C :   -0.209396
   5 N :    0.034788
   6 C :   -0.285476
   7 H :    0.150395
   8 H :    0.153706
   9 H :    0.155362
  10 C :   -0.210931
  11 N :    0.034015
  12 C :   -0.280569
  13 H :    0.156860
  14 H :    0.157633
  15 H :    0.148897
  16 C :   -0.198333
  17 N :    0.020120

  Mayer bond orders larger than 0.100000
B(  0-C ,  1-H ) :   0.9172 B(  0-C ,  2-H ) :   0.9150 B(  0-C ,  3-H ) :   0.9043
B(  0-C ,  4-C ) :   0.9004 B(  4-C ,  5-N ) :   2.7710 B(  6-C ,  7-H ) :   0.9101
B(  6-C ,  8-H ) :   0.9157 B(  6-C ,  9-H ) :   0.9132 B(  6-C , 10-C ) :   0.9109
B( 10-C , 11-N ) :   2.7715 B( 12-C , 13-H ) :   0.9014 B( 12-C , 14-H ) :   0.9014
B( 12-C , 15-H ) :   0.9140 B( 12-C , 16-C ) :   0.8989 B( 16-C , 17-N ) :   2.7177

MP2 TOTAL ENERGY:     -397.467370912 Eh
FINAL SINGLE POINT ENERGY      -397.467370911538

DIPOLE MOMENT
-------------
                                X             Y             Z
Electronic contribution:     -0.02102       0.05440      -3.17038
Nuclear contribution   :      0.00395      -0.09124       4.63514
                        -----------------------------------------
Total Dipole Moment    :     -0.01707      -0.03685       1.46475
                        -----------------------------------------
Magnitude (a.u.)       :      1.46532
Magnitude (Debye)      :      3.72454

Rotational constants in cm-1:     0.061865     0.025187     0.021782
Rotational constants in MHz :  1854.673425   755.086107   653.022734

                             ****ORCA TERMINATED NORMALLY****
TOTAL RUN TIME: 0 days 0 hours 4 minutes 21 seconds 110 msec
