                         Program Version 4.2.0 -  RELEASE  -
|  1> # 12h2o.su.etal.mol1,2,3,4,5,6,11
|  2> ! MP2 def2-TZVP EnGrad TightSCF
|  3>
|  4> %pal
|  5>     nprocs 6
|  6> end
|  7>
|  8> %maxcore 8000
|  9>
| 10> %scf
| 11>     ConvForced true
| 12> end
| 13>
| 14> *xyz 0 1
| 15> O  -1.794470000  -0.923410000   2.768350000
| 16> H  -2.338250000  -1.359750000   3.430940000
| 17> H  -0.879480000  -1.303000000   2.865760000
| 18> O   0.923410000  -1.794470000  -2.768350000
| 19> H   1.359750000  -2.338250000  -3.430940000
| 20> H   1.303000000  -0.879480000  -2.865760000
| 21> O  -1.752130000  -0.741530000  -2.896280000
| 22> H  -2.036450000  -0.920500000  -1.984040000
| 23> H  -0.921210000  -1.242140000  -2.984230000
| 24> O  -0.885520000   1.737840000   0.052730000
| 25> H  -1.032320000   2.090180000  -0.841890000
| 26> H  -1.284090000   0.839590000   0.017130000
| 27> O   0.885520000  -1.737840000   0.052730000
| 28> H   1.284090000  -0.839590000   0.017130000
| 29> H   1.032320000  -2.090180000  -0.841890000
| 30> O   1.737840000   0.885520000  -0.052730000
| 31> H   2.090180000   1.032320000   0.841890000
| 32> H   0.839590000   1.284090000  -0.017130000
| 33> O  -0.741530000   1.752130000   2.896280000
| 34> H  -0.920500000   2.036450000   1.984040000
| 35> H  -1.242140000   0.921210000   2.984230000
| 36> *
| 37>
| 38>                          ****END OF INPUT****

CARTESIAN COORDINATES (ANGSTROEM)
---------------------------------
  O     -1.794470   -0.923410    2.768350
  H     -2.338250   -1.359750    3.430940
  H     -0.879480   -1.303000    2.865760
  O      0.923410   -1.794470   -2.768350
  H      1.359750   -2.338250   -3.430940
  H      1.303000   -0.879480   -2.865760
  O     -1.752130   -0.741530   -2.896280
  H     -2.036450   -0.920500   -1.984040
  H     -0.921210   -1.242140   -2.984230
  O     -0.885520    1.737840    0.052730
  H     -1.032320    2.090180   -0.841890
  H     -1.284090    0.839590    0.017130
  O      0.885520   -1.737840    0.052730
  H      1.284090   -0.839590    0.017130
  H      1.032320   -2.090180   -0.841890
  O      1.737840    0.885520   -0.052730
  H      2.090180    1.032320    0.841890
  H      0.839590    1.284090   -0.017130
  O     -0.741530    1.752130    2.896280
  H     -0.920500    2.036450    1.984040
  H     -1.242140    0.921210    2.984230

 Total Charge           Charge          ....    0
 Multiplicity           Mult            ....    1
 Number of Electrons    NEL             ....   70
 Basis Dimension        Dim             ....  301

ORBITAL ENERGIES
----------------

  NO   OCC          E(Eh)            E(eV)
   0   2.0000     -20.610520      -560.8408
   1   2.0000     -20.610281      -560.8343
   2   2.0000     -20.582273      -560.0721
   3   2.0000     -20.561694      -559.5121
   4   2.0000     -20.549268      -559.1740
   5   2.0000     -20.514918      -558.2393
   6   2.0000     -20.513370      -558.1972
   7   2.0000      -1.393619       -37.9223
   8   2.0000      -1.390744       -37.8441
   9   2.0000      -1.359988       -37.0072
  10   2.0000      -1.347237       -36.6602
  11   2.0000      -1.331334       -36.2274
  12   2.0000      -1.300116       -35.3780
  13   2.0000      -1.297369       -35.3032
  14   2.0000      -0.756447       -20.5840
  15   2.0000      -0.750794       -20.4302
  16   2.0000      -0.726994       -19.7825
  17   2.0000      -0.717677       -19.5290
  18   2.0000      -0.701172       -19.0799
  19   2.0000      -0.682063       -18.5599
  20   2.0000      -0.679807       -18.4985
  21   2.0000      -0.633747       -17.2451
  22   2.0000      -0.627176       -17.0663
  23   2.0000      -0.602212       -16.3870
  24   2.0000      -0.594637       -16.1809
  25   2.0000      -0.580373       -15.7928
  26   2.0000      -0.557505       -15.1705
  27   2.0000      -0.547685       -14.9033
  28   2.0000      -0.538688       -14.6584
  29   2.0000      -0.531276       -14.4568
  30   2.0000      -0.515840       -14.0367
  31   2.0000      -0.497870       -13.5477
  32   2.0000      -0.496474       -13.5097
  33   2.0000      -0.464719       -12.6456
  34   2.0000      -0.464219       -12.6320
  35   0.0000       0.087778         2.3886
  36   0.0000       0.114061         3.1038
  37   0.0000       0.129703         3.5294
  38   0.0000       0.153751         4.1838
  39   0.0000       0.169221         4.6047

MULLIKEN ATOMIC CHARGES
-----------------------
   0 O :   -0.704338
   1 H :    0.351729
   2 H :    0.372396
   3 O :   -0.714603
   4 H :    0.362356
   5 H :    0.374128
   6 O :   -0.705018
   7 H :    0.329188
   8 H :    0.361687
   9 O :   -0.714772
  10 H :    0.370444
  11 H :    0.371453
  12 O :   -0.740962
  13 H :    0.341668
  14 H :    0.355662
  15 O :   -0.720624
  16 H :    0.358396
  17 H :    0.368013
  18 O :   -0.724385
  19 H :    0.360570
  20 H :    0.347013
Sum of atomic charges:   -0.0000000

LOEWDIN ATOMIC CHARGES
----------------------
   0 O :   -0.314219
   1 H :    0.163181
   2 H :    0.192311
   3 O :   -0.287129
   4 H :    0.167032
   5 H :    0.192871
   6 O :   -0.345011
   7 H :    0.157859
   8 H :    0.148139
   9 O :   -0.274050
  10 H :    0.177463
  11 H :    0.182262
  12 O :   -0.373385
  13 H :    0.134503
  14 H :    0.141541
  15 O :   -0.314205
  16 H :    0.171099
  17 H :    0.144116
  18 O :   -0.353284
  19 H :    0.146164
  20 H :    0.142742

  Mayer bond orders larger than 0.100000
B(  0-O ,  1-H ) :   0.8421 B(  0-O ,  2-H ) :   0.8204 B(  3-O ,  4-H ) :   0.8327
B(  3-O ,  5-H ) :   0.8178 B(  6-O ,  7-H ) :   0.8558 B(  6-O ,  8-H ) :   0.8177
B(  9-O , 10-H ) :   0.8259 B(  9-O , 11-H ) :   0.8152 B( 12-O , 13-H ) :   0.7970
B( 12-O , 14-H ) :   0.8336 B( 15-O , 16-H ) :   0.8366 B( 15-O , 17-H ) :   0.7853
B( 18-O , 19-H ) :   0.8341 B( 18-O , 20-H ) :   0.8241

MP2 TOTAL ENERGY:     -534.242042231 Eh
FINAL SINGLE POINT ENERGY      -534.242042231101

DIPOLE MOMENT
-------------
                                X             Y             Z
Electronic contribution:     -0.10556       0.17329      -0.13061
Nuclear contribution   :      0.42305      -0.93685      -0.77428
                        -----------------------------------------
Total Dipole Moment    :      0.31749      -0.76355      -0.90489
                        -----------------------------------------
Magnitude (a.u.)       :      1.22582
Magnitude (Debye)      :      3.11579

Rotational constants in cm-1:     0.043702     0.019618     0.019249
Rotational constants in MHz :  1310.146312   588.120691   577.061962

                             ****ORCA TERMINATED NORMALLY****
TOTAL RUN TIME: 0 days 0 hours 1 minutes 48 seconds 481 msec
