                         Program Version 4.2.0 -  RELEASE  -
|  1> # 12h2o.su.etal.mol3,4,7,8,10,11
|  2> ! MP2 def2-TZVP EnGrad TightSCF
|  3>
|  4> %pal
|  5>     nprocs 6
|  6> end
|  7>
|  8> %maxcore 8000
|  9>
| 10> %scf
| 11>     ConvForced true
| 12> end
| 13>
| 14> *xyz 0 1
| 15> O  -1.752130000  -0.741530000  -2.896280000
| 16> H  -2.036450000  -0.920500000  -1.984040000
| 17> H  -0.921210000  -1.242140000  -2.984230000
| 18> O  -0.885520000   1.737840000   0.052730000
| 19> H  -1.032320000   2.090180000  -0.841890000
| 20> H  -1.284090000   0.839590000   0.017130000
| 21> O  -1.737840000  -0.885520000  -0.052730000
| 22> H  -2.090180000  -1.032320000   0.841890000
| 23> H  -0.839590000  -1.284090000  -0.017130000
| 24> O   1.752130000   0.741530000  -2.896280000
| 25> H   2.036450000   0.920500000  -1.984040000
| 26> H   0.921210000   1.242140000  -2.984230000
| 27> O  -0.923410000   1.794470000  -2.768350000
| 28> H  -1.359750000   2.338250000  -3.430940000
| 29> H  -1.303000000   0.879480000  -2.865760000
| 30> O  -0.741530000   1.752130000   2.896280000
| 31> H  -0.920500000   2.036450000   1.984040000
| 32> H  -1.242140000   0.921210000   2.984230000
| 33> *
| 34>
| 35>                          ****END OF INPUT****

CARTESIAN COORDINATES (ANGSTROEM)
---------------------------------
  O     -1.752130   -0.741530   -2.896280
  H     -2.036450   -0.920500   -1.984040
  H     -0.921210   -1.242140   -2.984230
  O     -0.885520    1.737840    0.052730
  H     -1.032320    2.090180   -0.841890
  H     -1.284090    0.839590    0.017130
  O     -1.737840   -0.885520   -0.052730
  H     -2.090180   -1.032320    0.841890
  H     -0.839590   -1.284090   -0.017130
  O      1.752130    0.741530   -2.896280
  H      2.036450    0.920500   -1.984040
  H      0.921210    1.242140   -2.984230
  O     -0.923410    1.794470   -2.768350
  H     -1.359750    2.338250   -3.430940
  H     -1.303000    0.879480   -2.865760
  O     -0.741530    1.752130    2.896280
  H     -0.920500    2.036450    1.984040
  H     -1.242140    0.921210    2.984230

 Total Charge           Charge          ....    0
 Multiplicity           Mult            ....    1
 Number of Electrons    NEL             ....   60
 Basis Dimension        Dim             ....  258

ORBITAL ENERGIES
----------------

  NO   OCC          E(Eh)            E(eV)
   0   2.0000     -20.640995      -561.6700
   1   2.0000     -20.596981      -560.4724
   2   2.0000     -20.568826      -559.7062
   3   2.0000     -20.537507      -558.8540
   4   2.0000     -20.534677      -558.7770
   5   2.0000     -20.531737      -558.6970
   6   2.0000      -1.424209       -38.7547
   7   2.0000      -1.386433       -37.7268
   8   2.0000      -1.354702       -36.8633
   9   2.0000      -1.325794       -36.0767
  10   2.0000      -1.316723       -35.8299
  11   2.0000      -1.311626       -35.6911
  12   2.0000      -0.783324       -21.3153
  13   2.0000      -0.747125       -20.3303
  14   2.0000      -0.736272       -20.0350
  15   2.0000      -0.709620       -19.3098
  16   2.0000      -0.686497       -18.6805
  17   2.0000      -0.682467       -18.5709
  18   2.0000      -0.666193       -18.1280
  19   2.0000      -0.624729       -16.9997
  20   2.0000      -0.610851       -16.6221
  21   2.0000      -0.585604       -15.9351
  22   2.0000      -0.562981       -15.3195
  23   2.0000      -0.558563       -15.1993
  24   2.0000      -0.540558       -14.7093
  25   2.0000      -0.532635       -14.4937
  26   2.0000      -0.511941       -13.9306
  27   2.0000      -0.489143       -13.3103
  28   2.0000      -0.482401       -13.1268
  29   2.0000      -0.477472       -12.9927
  30   0.0000       0.069227         1.8838
  31   0.0000       0.117409         3.1949
  32   0.0000       0.142124         3.8674
  33   0.0000       0.168230         4.5778
  34   0.0000       0.175900         4.7865

MULLIKEN ATOMIC CHARGES
-----------------------
   0 O :   -0.696762
   1 H :    0.386322
   2 H :    0.359059
   3 O :   -0.737731
   4 H :    0.372739
   5 H :    0.331711
   6 O :   -0.711081
   7 H :    0.372060
   8 H :    0.373027
   9 O :   -0.717151
  10 H :    0.334428
  11 H :    0.362079
  12 O :   -0.750456
  13 H :    0.350135
  14 H :    0.383682
  15 O :   -0.687925
  16 H :    0.377808
  17 H :    0.298055
Sum of atomic charges:   -0.0000000

LOEWDIN ATOMIC CHARGES
----------------------
   0 O :   -0.270841
   1 H :    0.158263
   2 H :    0.174839
   3 O :   -0.345048
   4 H :    0.149361
   5 H :    0.133732
   6 O :   -0.276916
   7 H :    0.178748
   8 H :    0.186442
   9 O :   -0.351470
  10 H :    0.161553
  11 H :    0.146227
  12 O :   -0.312730
  13 H :    0.159248
  14 H :    0.146310
  15 O :   -0.339626
  16 H :    0.154164
  17 H :    0.147747

  Mayer bond orders larger than 0.100000
B(  0-O ,  1-H ) :   0.8072 B(  0-O ,  2-H ) :   0.8326 B(  3-O ,  4-H ) :   0.8084
B(  3-O ,  5-H ) :   0.8098 B(  6-O ,  7-H ) :   0.8265 B(  6-O ,  8-H ) :   0.8217
B(  9-O , 10-H ) :   0.8537 B(  9-O , 11-H ) :   0.8122 B( 12-O , 13-H ) :   0.8405
B( 12-O , 14-H ) :   0.7458 B( 15-O , 16-H ) :   0.8088 B( 15-O , 17-H ) :   0.8741

MP2 TOTAL ENERGY:     -457.925049939 Eh
FINAL SINGLE POINT ENERGY      -457.925049939437

DIPOLE MOMENT
-------------
                                X             Y             Z
Electronic contribution:     -0.10630      -0.12283      -0.26399
Nuclear contribution   :     -1.24435      -1.67229       0.05351
                        -----------------------------------------
Total Dipole Moment    :     -1.35065      -1.79512      -0.21048
                        -----------------------------------------
Magnitude (a.u.)       :      2.25633
Magnitude (Debye)      :      5.73513

Rotational constants in cm-1:     0.061588     0.028655     0.023779
Rotational constants in MHz :  1846.364145   859.047024   712.862719

                             ****ORCA TERMINATED NORMALLY****
TOTAL RUN TIME: 0 days 0 hours 1 minutes 24 seconds 713 msec
