                         Program Version 4.2.0 -  RELEASE  -
|  1> # 12h2o.su.etal.mol0,1,2,4,8
|  2> ! MP2 def2-TZVP EnGrad TightSCF
|  3>
|  4> %pal
|  5>     nprocs 6
|  6> end
|  7>
|  8> %maxcore 8000
|  9>
| 10> %scf
| 11>     ConvForced true
| 12> end
| 13>
| 14> *xyz 0 1
| 15> O   1.794470000   0.923410000   2.768350000
| 16> H   2.338250000   1.359750000   3.430940000
| 17> H   0.879480000   1.303000000   2.865760000
| 18> O  -1.794470000  -0.923410000   2.768350000
| 19> H  -2.338250000  -1.359750000   3.430940000
| 20> H  -0.879480000  -1.303000000   2.865760000
| 21> O   0.923410000  -1.794470000  -2.768350000
| 22> H   1.359750000  -2.338250000  -3.430940000
| 23> H   1.303000000  -0.879480000  -2.865760000
| 24> O  -0.885520000   1.737840000   0.052730000
| 25> H  -1.032320000   2.090180000  -0.841890000
| 26> H  -1.284090000   0.839590000   0.017130000
| 27> O   1.752130000   0.741530000  -2.896280000
| 28> H   2.036450000   0.920500000  -1.984040000
| 29> H   0.921210000   1.242140000  -2.984230000
| 30> *
| 31>
| 32>                          ****END OF INPUT****

CARTESIAN COORDINATES (ANGSTROEM)
---------------------------------
  O      1.794470    0.923410    2.768350
  H      2.338250    1.359750    3.430940
  H      0.879480    1.303000    2.865760
  O     -1.794470   -0.923410    2.768350
  H     -2.338250   -1.359750    3.430940
  H     -0.879480   -1.303000    2.865760
  O      0.923410   -1.794470   -2.768350
  H      1.359750   -2.338250   -3.430940
  H      1.303000   -0.879480   -2.865760
  O     -0.885520    1.737840    0.052730
  H     -1.032320    2.090180   -0.841890
  H     -1.284090    0.839590    0.017130
  O      1.752130    0.741530   -2.896280
  H      2.036450    0.920500   -1.984040
  H      0.921210    1.242140   -2.984230

 Total Charge           Charge          ....    0
 Multiplicity           Mult            ....    1
 Number of Electrons    NEL             ....   50
 Basis Dimension        Dim             ....  215

ORBITAL ENERGIES
----------------

  NO   OCC          E(Eh)            E(eV)
   0   2.0000     -20.593559      -560.3792
   1   2.0000     -20.564085      -559.5772
   2   2.0000     -20.562833      -559.5431
   3   2.0000     -20.555777      -559.3511
   4   2.0000     -20.514469      -558.2271
   5   2.0000      -1.378804       -37.5192
   6   2.0000      -1.339907       -36.4607
   7   2.0000      -1.338115       -36.4120
   8   2.0000      -1.331135       -36.2220
   9   2.0000      -1.296877       -35.2898
  10   2.0000      -0.736366       -20.0375
  11   2.0000      -0.706860       -19.2346
  12   2.0000      -0.701582       -19.0910
  13   2.0000      -0.698720       -19.0131
  14   2.0000      -0.687829       -18.7168
  15   2.0000      -0.613916       -16.7055
  16   2.0000      -0.579616       -15.7722
  17   2.0000      -0.574887       -15.6435
  18   2.0000      -0.567647       -15.4465
  19   2.0000      -0.554458       -15.0876
  20   2.0000      -0.510983       -13.9045
  21   2.0000      -0.506853       -13.7922
  22   2.0000      -0.506175       -13.7737
  23   2.0000      -0.498962       -13.5775
  24   2.0000      -0.464818       -12.6483
  25   0.0000       0.092421         2.5149
  26   0.0000       0.119272         3.2455
  27   0.0000       0.147078         4.0022
  28   0.0000       0.161051         4.3824
  29   0.0000       0.181044         4.9265

MULLIKEN ATOMIC CHARGES
-----------------------
   0 O :   -0.692127
   1 H :    0.334818
   2 H :    0.356408
   3 O :   -0.691009
   4 H :    0.339562
   5 H :    0.353073
   6 O :   -0.731290
   7 H :    0.324324
   8 H :    0.363848
   9 O :   -0.679408
  10 H :    0.323176
  11 H :    0.358503
  12 O :   -0.677806
  13 H :    0.368823
  14 H :    0.349105
Sum of atomic charges:   -0.0000000

LOEWDIN ATOMIC CHARGES
----------------------
   0 O :   -0.342096
   1 H :    0.156261
   2 H :    0.184570
   3 O :   -0.341009
   4 H :    0.158595
   5 H :    0.184213
   6 O :   -0.372305
   7 H :    0.148131
   8 H :    0.141441
   9 O :   -0.336319
  10 H :    0.158096
  11 H :    0.180164
  12 O :   -0.269913
  13 H :    0.178754
  14 H :    0.171418

  Mayer bond orders larger than 0.100000
B(  0-O ,  1-H ) :   0.8548 B(  0-O ,  2-H ) :   0.8336 B(  3-O ,  4-H ) :   0.8523
B(  3-O ,  5-H ) :   0.8367 B(  6-O ,  7-H ) :   0.8612 B(  6-O ,  8-H ) :   0.7894
B(  9-O , 10-H ) :   0.8595 B(  9-O , 11-H ) :   0.8357 B( 12-O , 13-H ) :   0.8296
B( 12-O , 14-H ) :   0.8413

MP2 TOTAL ENERGY:     -381.576295592 Eh
FINAL SINGLE POINT ENERGY      -381.576295592202

DIPOLE MOMENT
-------------
                                X             Y             Z
Electronic contribution:      0.09684       0.20842      -0.01381
Nuclear contribution   :     -0.22976       0.42024       0.54442
                        -----------------------------------------
Total Dipole Moment    :     -0.13292       0.62866       0.53061
                        -----------------------------------------
Magnitude (a.u.)       :      0.83333
Magnitude (Debye)      :      2.11815

Rotational constants in cm-1:     0.056452     0.022889     0.020833
Rotational constants in MHz :  1692.391335   686.187539   624.560368

                             ****ORCA TERMINATED NORMALLY****
TOTAL RUN TIME: 0 days 0 hours 0 minutes 27 seconds 906 msec
