                         Program Version 4.2.0 -  RELEASE  -
|  1> # 12h2o.su.etal.mol0,3,4
|  2> ! MP2 def2-TZVP EnGrad TightSCF
|  3>
|  4> %pal
|  5>     nprocs 6
|  6> end
|  7>
|  8> %maxcore 8000
|  9>
| 10> %scf
| 11>     ConvForced true
| 12> end
| 13>
| 14> *xyz 0 1
| 15> O   1.794470000   0.923410000   2.768350000
| 16> H   2.338250000   1.359750000   3.430940000
| 17> H   0.879480000   1.303000000   2.865760000
| 18> O  -1.752130000  -0.741530000  -2.896280000
| 19> H  -2.036450000  -0.920500000  -1.984040000
| 20> H  -0.921210000  -1.242140000  -2.984230000
| 21> O  -0.885520000   1.737840000   0.052730000
| 22> H  -1.032320000   2.090180000  -0.841890000
| 23> H  -1.284090000   0.839590000   0.017130000
| 24> *
| 25>
| 26>                          ****END OF INPUT****

CARTESIAN COORDINATES (ANGSTROEM)
---------------------------------
  O      1.794470    0.923410    2.768350
  H      2.338250    1.359750    3.430940
  H      0.879480    1.303000    2.865760
  O     -1.752130   -0.741530   -2.896280
  H     -2.036450   -0.920500   -1.984040
  H     -0.921210   -1.242140   -2.984230
  O     -0.885520    1.737840    0.052730
  H     -1.032320    2.090180   -0.841890
  H     -1.284090    0.839590    0.017130

 Total Charge           Charge          ....    0
 Multiplicity           Mult            ....    1
 Number of Electrons    NEL             ....   30
 Basis Dimension        Dim             ....  129

ORBITAL ENERGIES
----------------

  NO   OCC          E(Eh)            E(eV)
   0   2.0000     -20.575616      -559.8910
   1   2.0000     -20.565493      -559.6155
   2   2.0000     -20.552810      -559.2704
   3   2.0000      -1.354630       -36.8614
   4   2.0000      -1.341308       -36.4989
   5   2.0000      -1.328198       -36.1421
   6   2.0000      -0.717560       -19.5258
   7   2.0000      -0.703756       -19.1502
   8   2.0000      -0.696378       -18.9494
   9   2.0000      -0.591945       -16.1076
  10   2.0000      -0.581174       -15.8146
  11   2.0000      -0.564444       -15.3593
  12   2.0000      -0.519245       -14.1294
  13   2.0000      -0.508083       -13.8256
  14   2.0000      -0.495944       -13.4953
  15   0.0000       0.093723         2.5503
  16   0.0000       0.134837         3.6691
  17   0.0000       0.160670         4.3721
  18   0.0000       0.178868         4.8672
  19   0.0000       0.208300         5.6681

MULLIKEN ATOMIC CHARGES
-----------------------
   0 O :   -0.684792
   1 H :    0.334716
   2 H :    0.348723
   3 O :   -0.669994
   4 H :    0.327873
   5 H :    0.344346
   6 O :   -0.672657
   7 H :    0.345484
   8 H :    0.326301
Sum of atomic charges:   -0.0000000

LOEWDIN ATOMIC CHARGES
----------------------
   0 O :   -0.340017
   1 H :    0.156012
   2 H :    0.182453
   3 O :   -0.327994
   4 H :    0.159809
   5 H :    0.170174
   6 O :   -0.334582
   7 H :    0.168410
   8 H :    0.165734

  Mayer bond orders larger than 0.100000
B(  0-O ,  1-H ) :   0.8554 B(  0-O ,  2-H ) :   0.8408 B(  3-O ,  4-H ) :   0.8567
B(  3-O ,  5-H ) :   0.8486 B(  6-O ,  7-H ) :   0.8477 B(  6-O ,  8-H ) :   0.8560

MP2 TOTAL ENERGY:     -228.939361129 Eh
FINAL SINGLE POINT ENERGY      -228.939361129062

DIPOLE MOMENT
-------------
                                X             Y             Z
Electronic contribution:      0.05916       0.07051      -0.14902
Nuclear contribution   :     -0.30796      -0.34090       0.54442
                        -----------------------------------------
Total Dipole Moment    :     -0.24880      -0.27040       0.39540
                        -----------------------------------------
Magnitude (a.u.)       :      0.53977
Magnitude (Debye)      :      1.37199

Rotational constants in cm-1:     0.370864     0.039197     0.035730
Rotational constants in MHz : 11118.228964  1175.096736  1071.143701

                             ****ORCA TERMINATED NORMALLY****
TOTAL RUN TIME: 0 days 0 hours 0 minutes 27 seconds 888 msec
