                         Program Version 4.2.0 -  RELEASE  -
|  1> ! MP2 def2-TZVP EnGrad TightSCF FrozenCore
|  2>
|  3> %pal
|  4>     nprocs 12
|  5> end
|  6>
|  7> %maxcore 8000
|  8>
|  9> %scf
| 10>     ConvForced true
| 11> end
| 12>
| 13> *xyz 0 1
| 14> C    -1.586555    -2.953674    -1.442414
| 15> H    -2.590476    -2.991272    -1.872967
| 16> H    -1.030235    -3.838827    -1.761235
| 17> H    -1.072547    -2.055435    -1.796525
| 18> C    -1.668079    -2.912152     0.015601
| 19> N    -1.728150    -2.871021     1.174779
| 20> C     0.015907     0.002967     1.984172
| 21> H     1.049452    -0.036343     2.339938
| 22> H    -0.535150    -0.871524     2.342003
| 23> H    -0.466357     0.918026     2.339899
| 24> C     0.014721     0.001260     0.525479
| 25> N     0.013283    -0.000075    -0.638506
| 26> C    -1.808272     2.820877    -1.445207
| 27> H    -2.854026     2.753828    -1.755935
| 28> H    -1.267876     1.937655    -1.797820
| 29> H    -1.364251     3.717789    -1.884563
| 30> C    -1.722146     2.881630     0.011869
| 31> N    -1.648721     2.921888     1.170308
| 32> C     3.369449     0.124477    -1.452616
| 33> H     3.913430    -0.718866    -1.885621
| 34> H     3.846120     1.055260    -1.770521
| 35> H     2.334146     0.108659    -1.805088
| 36> C     3.377754     0.030528     0.005211
| 37> N     3.375172    -0.044284     1.164258
| 38> *
| 39>
| 40>                          ****END OF INPUT****

CARTESIAN COORDINATES (ANGSTROEM)
---------------------------------
  C     -1.586555   -2.953674   -1.442414
  H     -2.590476   -2.991272   -1.872967
  H     -1.030235   -3.838827   -1.761235
  H     -1.072547   -2.055435   -1.796525
  C     -1.668079   -2.912152    0.015601
  N     -1.728150   -2.871021    1.174779
  C      0.015907    0.002967    1.984172
  H      1.049452   -0.036343    2.339938
  H     -0.535150   -0.871524    2.342003
  H     -0.466357    0.918026    2.339899
  C      0.014721    0.001260    0.525479
  N      0.013283   -0.000075   -0.638506
  C     -1.808272    2.820877   -1.445207
  H     -2.854026    2.753828   -1.755935
  H     -1.267876    1.937655   -1.797820
  H     -1.364251    3.717789   -1.884563
  C     -1.722146    2.881630    0.011869
  N     -1.648721    2.921888    1.170308
  C      3.369449    0.124477   -1.452616
  H      3.913430   -0.718866   -1.885621
  H      3.846120    1.055260   -1.770521
  H      2.334146    0.108659   -1.805088
  C      3.377754    0.030528    0.005211
  N      3.375172   -0.044284    1.164258

 Total Charge           Charge          ....    0
 Multiplicity           Mult            ....    1
 Number of Electrons    NEL             ....   88
 Basis Dimension        Dim             ....  444

ORBITAL ENERGIES
----------------

  NO   OCC          E(Eh)            E(eV)
   0   2.0000     -15.569442      -423.6661
   1   2.0000     -15.569408      -423.6651
   2   2.0000     -15.569366      -423.6640
   3   2.0000     -15.565656      -423.5630
   4   2.0000     -11.285635      -307.0977
   5   2.0000     -11.280135      -306.9481
   6   2.0000     -11.280100      -306.9471
   7   2.0000     -11.280072      -306.9464
   8   2.0000     -11.277933      -306.8882
   9   2.0000     -11.277892      -306.8870
  10   2.0000     -11.277841      -306.8857
  11   2.0000     -11.250681      -306.1466
  12   2.0000      -1.219931       -33.1960
  13   2.0000      -1.216418       -33.1004
  14   2.0000      -1.216378       -33.0993
  15   2.0000      -1.214071       -33.0366
  16   2.0000      -1.034328       -28.1455
  17   2.0000      -1.034173       -28.1413
  18   2.0000      -1.034126       -28.1400
  19   2.0000      -1.015489       -27.6329
  20   2.0000      -0.693591       -18.8736
  21   2.0000      -0.693060       -18.8591
  22   2.0000      -0.693018       -18.8580
  23   2.0000      -0.675364       -18.3776
  24   2.0000      -0.627100       -17.0643
  25   2.0000      -0.627045       -17.0628
  26   2.0000      -0.625691       -17.0259
  27   2.0000      -0.623744       -16.9729
  28   2.0000      -0.623693       -16.9716
  29   2.0000      -0.623637       -16.9700
  30   2.0000      -0.602053       -16.3827
  31   2.0000      -0.602011       -16.3815
  32   2.0000      -0.560684       -15.2570
  33   2.0000      -0.554773       -15.0961
  34   2.0000      -0.554287       -15.0829
  35   2.0000      -0.554239       -15.0816
  36   2.0000      -0.461540       -12.5591
  37   2.0000      -0.461464       -12.5571
  38   2.0000      -0.460105       -12.5201
  39   2.0000      -0.459348       -12.4995
  40   2.0000      -0.459226       -12.4962
  41   2.0000      -0.459178       -12.4949
  42   2.0000      -0.455089       -12.3836
  43   2.0000      -0.455001       -12.3812
  44   0.0000       0.116217         3.1624
  45   0.0000       0.135213         3.6793
  46   0.0000       0.135625         3.6905
  47   0.0000       0.164371         4.4727
  48   0.0000       0.169824         4.6212

MULLIKEN ATOMIC CHARGES
-----------------------
   0 C :   -0.291658
   1 H :    0.166895
   2 H :    0.167343
   3 H :    0.192256
   4 C :   -0.110762
   5 N :   -0.126281
   6 C :   -0.303947
   7 H :    0.194767
   8 H :    0.194739
   9 H :    0.194729
  10 C :    0.014538
  11 N :   -0.288231
  12 C :   -0.291639
  13 H :    0.167235
  14 H :    0.192231
  15 H :    0.166997
  16 C :   -0.110709
  17 N :   -0.126319
  18 C :   -0.291474
  19 H :    0.166947
  20 H :    0.167288
  21 H :    0.192192
  22 C :   -0.110781
  23 N :   -0.126356
Sum of atomic charges:   -0.0000000

LOEWDIN ATOMIC CHARGES
----------------------
   0 C :   -0.283688
   1 H :    0.149090
   2 H :    0.149385
   3 H :    0.151995
   4 C :   -0.207483
   5 N :    0.039362
   6 C :   -0.275818
   7 H :    0.154976
   8 H :    0.155070
   9 H :    0.155076
  10 C :   -0.185698
  11 N :    0.000353
  12 C :   -0.283688
  13 H :    0.149355
  14 H :    0.151994
  15 H :    0.149121
  16 C :   -0.207469
  17 N :    0.039350
  18 C :   -0.283628
  19 H :    0.149110
  20 H :    0.149380
  21 H :    0.152011
  22 C :   -0.207446
  23 N :    0.039291

  Mayer bond orders larger than 0.100000
B(  0-C ,  1-H ) :   0.9177 B(  0-C ,  2-H ) :   0.9176 B(  0-C ,  3-H ) :   0.9067
B(  0-C ,  4-C ) :   0.8998 B(  4-C ,  5-N ) :   2.7838 B(  6-C ,  7-H ) :   0.9034
B(  6-C ,  8-H ) :   0.9033 B(  6-C ,  9-H ) :   0.9033 B(  6-C , 10-C ) :   0.8892
B( 10-C , 11-N ) :   2.5953 B( 12-C , 13-H ) :   0.9176 B( 12-C , 14-H ) :   0.9067
B( 12-C , 15-H ) :   0.9177 B( 12-C , 16-C ) :   0.8999 B( 16-C , 17-N ) :   2.7838
B( 18-C , 19-H ) :   0.9177 B( 18-C , 20-H ) :   0.9176 B( 18-C , 21-H ) :   0.9067
B( 18-C , 22-C ) :   0.8999 B( 22-C , 23-N ) :   2.7839

MP2 TOTAL ENERGY:     -529.958137893 Eh
FINAL SINGLE POINT ENERGY      -529.958137893239

DIPOLE MOMENT
-------------
                                X             Y             Z
Electronic contribution:      0.02688       0.01451       6.47513
Nuclear contribution   :     -0.03794      -0.02115      -9.35147
                        -----------------------------------------
Total Dipole Moment    :     -0.01106      -0.00663      -2.87635
                        -----------------------------------------
Magnitude (a.u.)       :      2.87637
Magnitude (Debye)      :      7.31116

Rotational constants in cm-1:     0.018143     0.017843     0.012010
Rotational constants in MHz :   543.904891   534.924882   360.064986

                             ****ORCA TERMINATED NORMALLY****
TOTAL RUN TIME: 0 days 0 hours 8 minutes 3 seconds 353 msec
