                         Program Version 4.2.0 -  RELEASE  -
|  1> # 12mecn.remya.etal.2.mol8
|  2> ! MP2 def2-TZVP EnGrad TightSCF
|  3>
|  4> %pal
|  5>     nprocs 6
|  6> end
|  7>
|  8> %maxcore 8000
|  9>
| 10> %scf
| 11>     ConvForced true
| 12> end
| 13>
| 14> *xyz 0 1
| 15> C   1.912641000  -2.468050000  -1.750510000
| 16> H   2.876947000  -2.793500000  -2.151200000
| 17> H   1.688016000  -1.463720000  -2.122170000
| 18> H   1.123460000  -3.154780000  -2.069590000
| 19> C   1.977850000  -2.444240000  -0.306900000
| 20> N   2.036566000  -2.426130000   0.858249000
| 21> *
| 22>
| 23>                          ****END OF INPUT****

CARTESIAN COORDINATES (ANGSTROEM)
---------------------------------
  C      1.912641   -2.468050   -1.750510
  H      2.876947   -2.793500   -2.151200
  H      1.688016   -1.463720   -2.122170
  H      1.123460   -3.154780   -2.069590
  C      1.977850   -2.444240   -0.306900
  N      2.036566   -2.426130    0.858249

 Total Charge           Charge          ....    0
 Multiplicity           Mult            ....    1
 Number of Electrons    NEL             ....   22
 Basis Dimension        Dim             ....  111

ORBITAL ENERGIES
----------------

  NO   OCC          E(Eh)            E(eV)
   0   2.0000     -15.573362      -423.7727
   1   2.0000     -11.285707      -307.0997
   2   2.0000     -11.280298      -306.9525
   3   2.0000      -1.214722       -33.0543
   4   2.0000      -1.044295       -28.4167
   5   2.0000      -0.700012       -19.0483
   6   2.0000      -0.633332       -17.2338
   7   2.0000      -0.631478       -17.1834
   8   2.0000      -0.556015       -15.1299
   9   2.0000      -0.457927       -12.4608
  10   2.0000      -0.457680       -12.4541
  11   0.0000       0.118675         3.2293
  12   0.0000       0.170949         4.6518
  13   0.0000       0.171176         4.6579
  14   0.0000       0.202243         5.5033
  15   0.0000       0.224203         6.1009

MULLIKEN ATOMIC CHARGES
-----------------------
   0 C :   -0.279017
   1 H :    0.172250
   2 H :    0.172117
   3 H :    0.172147
   4 C :   -0.146023
   5 N :   -0.091474
Sum of atomic charges:   -0.0000000

LOEWDIN ATOMIC CHARGES
----------------------
   0 C :   -0.283961
   1 H :    0.152743
   2 H :    0.152673
   3 H :    0.152484
   4 C :   -0.220085
   5 N :    0.046146

  Mayer bond orders larger than 0.100000
B(  0-C ,  1-H ) :   0.9164 B(  0-C ,  2-H ) :   0.9167 B(  0-C ,  3-H ) :   0.9164
B(  0-C ,  4-C ) :   0.9013 B(  4-C ,  5-N ) :   2.8369

MP2 TOTAL ENERGY:     -132.483108297 Eh
FINAL SINGLE POINT ENERGY      -132.483108297015

DIPOLE MOMENT
-------------
                                X             Y             Z
Electronic contribution:      0.14239       0.04398       3.10598
Nuclear contribution   :     -0.21537      -0.06657      -4.63518
                        -----------------------------------------
Total Dipole Moment    :     -0.07298      -0.02258      -1.52920
                        -----------------------------------------
Magnitude (a.u.)       :      1.53110
Magnitude (Debye)      :      3.89175

Rotational constants in cm-1:     5.239266     0.308571     0.308457
Rotational constants in MHz : 157069.234273  9250.736630  9247.317897

                             ****ORCA TERMINATED NORMALLY****
TOTAL RUN TIME: 0 days 0 hours 0 minutes 11 seconds 478 msec
