                         Program Version 4.2.0 -  RELEASE  -
|  1> # 12h2o.su.etal.mol2,3,7,10
|  2> ! MP2 def2-TZVP EnGrad TightSCF
|  3>
|  4> %pal
|  5>     nprocs 6
|  6> end
|  7>
|  8> %maxcore 8000
|  9>
| 10> %scf
| 11>     ConvForced true
| 12> end
| 13>
| 14> *xyz 0 1
| 15> O   0.923410000  -1.794470000  -2.768350000
| 16> H   1.359750000  -2.338250000  -3.430940000
| 17> H   1.303000000  -0.879480000  -2.865760000
| 18> O  -1.752130000  -0.741530000  -2.896280000
| 19> H  -2.036450000  -0.920500000  -1.984040000
| 20> H  -0.921210000  -1.242140000  -2.984230000
| 21> O  -1.737840000  -0.885520000  -0.052730000
| 22> H  -2.090180000  -1.032320000   0.841890000
| 23> H  -0.839590000  -1.284090000  -0.017130000
| 24> O  -0.923410000   1.794470000  -2.768350000
| 25> H  -1.359750000   2.338250000  -3.430940000
| 26> H  -1.303000000   0.879480000  -2.865760000
| 27> *
| 28>
| 29>                          ****END OF INPUT****

CARTESIAN COORDINATES (ANGSTROEM)
---------------------------------
  O      0.923410   -1.794470   -2.768350
  H      1.359750   -2.338250   -3.430940
  H      1.303000   -0.879480   -2.865760
  O     -1.752130   -0.741530   -2.896280
  H     -2.036450   -0.920500   -1.984040
  H     -0.921210   -1.242140   -2.984230
  O     -1.737840   -0.885520   -0.052730
  H     -2.090180   -1.032320    0.841890
  H     -0.839590   -1.284090   -0.017130
  O     -0.923410    1.794470   -2.768350
  H     -1.359750    2.338250   -3.430940
  H     -1.303000    0.879480   -2.865760

 Total Charge           Charge          ....    0
 Multiplicity           Mult            ....    1
 Number of Electrons    NEL             ....   40
 Basis Dimension        Dim             ....  172

ORBITAL ENERGIES
----------------

  NO   OCC          E(Eh)            E(eV)
   0   2.0000     -20.594319      -560.3999
   1   2.0000     -20.581789      -560.0590
   2   2.0000     -20.538302      -558.8756
   3   2.0000     -20.501000      -557.8606
   4   2.0000      -1.372263       -37.3412
   5   2.0000      -1.360474       -37.0204
   6   2.0000      -1.329639       -36.1813
   7   2.0000      -1.282557       -34.9001
   8   2.0000      -0.739215       -20.1151
   9   2.0000      -0.723504       -19.6876
  10   2.0000      -0.696325       -18.9480
  11   2.0000      -0.669121       -18.2077
  12   2.0000      -0.618316       -16.8252
  13   2.0000      -0.600511       -16.3407
  14   2.0000      -0.567652       -15.4466
  15   2.0000      -0.537863       -14.6360
  16   2.0000      -0.526641       -14.3306
  17   2.0000      -0.520562       -14.1652
  18   2.0000      -0.476281       -12.9603
  19   2.0000      -0.451836       -12.2951
  20   0.0000       0.103884         2.8268
  21   0.0000       0.129912         3.5351
  22   0.0000       0.174976         4.7613
  23   0.0000       0.192487         5.2378
  24   0.0000       0.204887         5.5753

MULLIKEN ATOMIC CHARGES
-----------------------
   0 O :   -0.706986
   1 H :    0.356063
   2 H :    0.372039
   3 O :   -0.716446
   4 H :    0.381043
   5 H :    0.357669
   6 O :   -0.691343
   7 H :    0.348333
   8 H :    0.352508
   9 O :   -0.740786
  10 H :    0.319181
  11 H :    0.368725
Sum of atomic charges:    0.0000000

LOEWDIN ATOMIC CHARGES
----------------------
   0 O :   -0.313592
   1 H :    0.165315
   2 H :    0.192653
   3 O :   -0.288493
   4 H :    0.156599
   5 H :    0.146662
   6 O :   -0.316410
   7 H :    0.170795
   8 H :    0.177615
   9 O :   -0.377965
  10 H :    0.145369
  11 H :    0.141451

  Mayer bond orders larger than 0.100000
B(  0-O ,  1-H ) :   0.8398 B(  0-O ,  2-H ) :   0.8212 B(  3-O ,  4-H ) :   0.8086
B(  3-O ,  5-H ) :   0.8128 B(  3-O , 11-H ) :   0.1020 B(  6-O ,  7-H ) :   0.8437
B(  6-O ,  8-H ) :   0.8373 B(  9-O , 10-H ) :   0.8637 B(  9-O , 11-H ) :   0.7706

MP2 TOTAL ENERGY:     -305.278084943 Eh
FINAL SINGLE POINT ENERGY      -305.278084943232

DIPOLE MOMENT
-------------
                                X             Y             Z
Electronic contribution:     -0.06469      -0.23308       0.14329
Nuclear contribution   :      0.90936      -1.01960       0.19520
                        -----------------------------------------
Total Dipole Moment    :      0.84468      -1.25268       0.33848
                        -----------------------------------------
Magnitude (a.u.)       :      1.54831
Magnitude (Debye)      :      3.93549

Rotational constants in cm-1:     0.094799     0.090944     0.057434
Rotational constants in MHz :  2842.003520  2726.444238  1721.821879

                             ****ORCA TERMINATED NORMALLY****
TOTAL RUN TIME: 0 days 0 hours 0 minutes 25 seconds 321 msec
