                         Program Version 4.2.0 -  RELEASE  -
|  1> # 12mecn.remya.etal.2.mol1,10
|  2> ! MP2 def2-TZVP EnGrad TightSCF
|  3>
|  4> %pal
|  5>     nprocs 6
|  6> end
|  7>
|  8> %maxcore 8000
|  9>
| 10> %scf
| 11>     ConvForced true
| 12> end
| 13>
| 14> *xyz 0 1
| 15> C  -4.697980000  -0.249690000   1.746215000
| 16> H  -4.927570000   0.755530000   2.111799000
| 17> H  -3.709180000  -0.561560000   2.093253000
| 18> H  -5.432280000  -0.961520000   2.128066000
| 19> C  -4.714100000  -0.247110000   0.301670000
| 20> N  -4.729750000  -0.234960000  -0.865260000
| 21> C   4.602033000   0.321019000  -1.784800000
| 22> H   4.827650000  -0.662160000  -2.207910000
| 23> H   5.320558000   1.057980000  -2.148500000
| 24> H   3.601982000   0.643751000  -2.087520000
| 25> C   4.654967000   0.244048000  -0.343060000
| 26> N   4.691648000   0.166590000   0.820757000
| 27> *
| 28>
| 29>                          ****END OF INPUT****

CARTESIAN COORDINATES (ANGSTROEM)
---------------------------------
  C     -4.697980   -0.249690    1.746215
  H     -4.927570    0.755530    2.111799
  H     -3.709180   -0.561560    2.093253
  H     -5.432280   -0.961520    2.128066
  C     -4.714100   -0.247110    0.301670
  N     -4.729750   -0.234960   -0.865260
  C      4.602033    0.321019   -1.784800
  H      4.827650   -0.662160   -2.207910
  H      5.320558    1.057980   -2.148500
  H      3.601982    0.643751   -2.087520
  C      4.654967    0.244048   -0.343060
  N      4.691648    0.166590    0.820757

 Total Charge           Charge          ....    0
 Multiplicity           Mult            ....    1
 Number of Electrons    NEL             ....   44
 Basis Dimension        Dim             ....  222

ORBITAL ENERGIES
----------------

  NO   OCC          E(Eh)            E(eV)
   0   2.0000     -15.573368      -423.7729
   1   2.0000     -15.573204      -423.7684
   2   2.0000     -11.284651      -307.0710
   3   2.0000     -11.284565      -307.0686
   4   2.0000     -11.280458      -306.9569
   5   2.0000     -11.280296      -306.9525
   6   2.0000      -1.214595       -33.0508
   7   2.0000      -1.214538       -33.0493
   8   2.0000      -1.044119       -28.4119
   9   2.0000      -1.043989       -28.4084
  10   2.0000      -0.700048       -19.0493
  11   2.0000      -0.699808       -19.0428
  12   2.0000      -0.634059       -17.2536
  13   2.0000      -0.633993       -17.2518
  14   2.0000      -0.629842       -17.1389
  15   2.0000      -0.629627       -17.1330
  16   2.0000      -0.556161       -15.1339
  17   2.0000      -0.556030       -15.1303
  18   2.0000      -0.457940       -12.4612
  19   2.0000      -0.457890       -12.4598
  20   2.0000      -0.457419       -12.4470
  21   2.0000      -0.457316       -12.4442
  22   0.0000       0.119581         3.2540
  23   0.0000       0.119692         3.2570
  24   0.0000       0.171246         4.6598
  25   0.0000       0.171466         4.6658
  26   0.0000       0.172035         4.6813

MULLIKEN ATOMIC CHARGES
-----------------------
   0 C :   -0.278758
   1 H :    0.172410
   2 H :    0.173408
   3 H :    0.172071
   4 C :   -0.145591
   5 N :   -0.093540
   6 C :   -0.278686
   7 H :    0.172546
   8 H :    0.171860
   9 H :    0.173436
  10 C :   -0.145752
  11 N :   -0.093403
Sum of atomic charges:    0.0000000

LOEWDIN ATOMIC CHARGES
----------------------
   0 C :   -0.283416
   1 H :    0.153140
   2 H :    0.153348
   3 H :    0.151682
   4 C :   -0.219599
   5 N :    0.044843
   6 C :   -0.283366
   7 H :    0.153130
   8 H :    0.151509
   9 H :    0.153569
  10 C :   -0.219696
  11 N :    0.044854

  Mayer bond orders larger than 0.100000
B(  0-C ,  1-H ) :   0.9158 B(  0-C ,  2-H ) :   0.9163 B(  0-C ,  3-H ) :   0.9170
B(  0-C ,  4-C ) :   0.9014 B(  4-C ,  5-N ) :   2.8376 B(  6-C ,  7-H ) :   0.9158
B(  6-C ,  8-H ) :   0.9169 B(  6-C ,  9-H ) :   0.9163 B(  6-C , 10-C ) :   0.9013
B( 10-C , 11-N ) :   2.8378

MP2 TOTAL ENERGY:     -264.966534666 Eh
FINAL SINGLE POINT ENERGY      -264.966534666446

DIPOLE MOMENT
-------------
                                X             Y             Z
Electronic contribution:      0.07817      -0.16332      -0.00841
Nuclear contribution   :     -0.11265       0.24545       0.01227
                        -----------------------------------------
Total Dipole Moment    :     -0.03448       0.08213       0.00387
                        -----------------------------------------
Magnitude (a.u.)       :      0.08916
Magnitude (Debye)      :      0.22663

Rotational constants in cm-1:     0.155235     0.009215     0.008729
Rotational constants in MHz :  4653.824285   276.271525   261.690831

                             ****ORCA TERMINATED NORMALLY****
TOTAL RUN TIME: 0 days 0 hours 0 minutes 32 seconds 918 msec
