                         Program Version 4.2.0 -  RELEASE  -
|  1> # 12meoh.boyd.etal.mol1,5,11
|  2> ! MP2 def2-TZVP EnGrad TightSCF
|  3>
|  4> %pal
|  5>     nprocs 6
|  6> end
|  7>
|  8> %maxcore 8000
|  9>
| 10> %scf
| 11>     ConvForced true
| 12> end
| 13>
| 14> *xyz 0 1
| 15> O   0.666045193  -2.600503172   0.138317521
| 16> H  -0.227115049  -2.712051982  -0.281868004
| 17> C   0.490021232  -1.851247678   1.341189459
| 18> H   1.466500502  -1.466176022   1.645844415
| 19> H   0.097564527  -2.488364683   2.146902740
| 20> H  -0.187588112  -1.000787499   1.200739571
| 21> O  -0.662721750   1.449094618  -1.383082065
| 22> H   0.064188300   2.119867608  -1.465650660
| 23> C  -0.353319239   0.341218776  -2.229326771
| 24> H  -1.072358530  -0.454743281  -2.019906495
| 25> H   0.657636746  -0.044472139  -2.042736771
| 26> H  -0.434616607   0.624733901  -3.287793021
| 27> O   3.252955559   0.588596242   1.858934315
| 28> H   3.621209177  -0.251605199   1.476063364
| 29> C   4.040824528   0.944288422   2.989639460
| 30> H   3.670521436   1.902573549   3.363847391
| 31> H   5.103749934   1.055868619   2.734277559
| 32> H   3.948540682   0.200279590   3.792908518
| 33> *
| 34>
| 35>                          ****END OF INPUT****

CARTESIAN COORDINATES (ANGSTROEM)
---------------------------------
  O      0.666045   -2.600503    0.138318
  H     -0.227115   -2.712052   -0.281868
  C      0.490021   -1.851248    1.341189
  H      1.466501   -1.466176    1.645844
  H      0.097565   -2.488365    2.146903
  H     -0.187588   -1.000787    1.200740
  O     -0.662722    1.449095   -1.383082
  H      0.064188    2.119868   -1.465651
  C     -0.353319    0.341219   -2.229327
  H     -1.072359   -0.454743   -2.019906
  H      0.657637   -0.044472   -2.042737
  H     -0.434617    0.624734   -3.287793
  O      3.252956    0.588596    1.858934
  H      3.621209   -0.251605    1.476063
  C      4.040825    0.944288    2.989639
  H      3.670521    1.902574    3.363847
  H      5.103750    1.055869    2.734278
  H      3.948541    0.200280    3.792909

 Total Charge           Charge          ....    0
 Multiplicity           Mult            ....    1
 Number of Electrons    NEL             ....   54
 Basis Dimension        Dim             ....  258

ORBITAL ENERGIES
----------------

  NO   OCC          E(Eh)            E(eV)
   0   2.0000     -20.560797      -559.4877
   1   2.0000     -20.553131      -559.2791
   2   2.0000     -20.552215      -559.2542
   3   2.0000     -11.273777      -306.7751
   4   2.0000     -11.267704      -306.6098
   5   2.0000     -11.262298      -306.4627
   6   2.0000      -1.349972       -36.7346
   7   2.0000      -1.340939       -36.4888
   8   2.0000      -1.340452       -36.4755
   9   2.0000      -0.922319       -25.0976
  10   2.0000      -0.915880       -24.9224
  11   2.0000      -0.911664       -24.8076
  12   2.0000      -0.684708       -18.6319
  13   2.0000      -0.676300       -18.4031
  14   2.0000      -0.675209       -18.3734
  15   2.0000      -0.620156       -16.8753
  16   2.0000      -0.614273       -16.7152
  17   2.0000      -0.607090       -16.5198
  18   2.0000      -0.594578       -16.1793
  19   2.0000      -0.586729       -15.9657
  20   2.0000      -0.582610       -15.8536
  21   2.0000      -0.502816       -13.6823
  22   2.0000      -0.496820       -13.5192
  23   2.0000      -0.494397       -13.4532
  24   2.0000      -0.452057       -12.3011
  25   2.0000      -0.446420       -12.1477
  26   2.0000      -0.440934       -11.9984
  27   0.0000       0.120608         3.2819
  28   0.0000       0.138373         3.7653
  29   0.0000       0.148909         4.0520
  30   0.0000       0.173493         4.7210
  31   0.0000       0.185960         5.0602

MULLIKEN ATOMIC CHARGES
-----------------------
   0 O :   -0.505767
   1 H :    0.321162
   2 C :   -0.163684
   3 H :    0.096616
   4 H :    0.107580
   5 H :    0.131719
   6 O :   -0.503155
   7 H :    0.324915
   8 C :   -0.176547
   9 H :    0.109472
  10 H :    0.129719
  11 H :    0.112103
  12 O :   -0.487593
  13 H :    0.327788
  14 C :   -0.178669
  15 H :    0.130310
  16 H :    0.112956
  17 H :    0.111077
Sum of atomic charges:   -0.0000000

LOEWDIN ATOMIC CHARGES
----------------------
   0 O :   -0.113895
   1 H :    0.187669
   2 C :   -0.378754
   3 H :    0.102960
   4 H :    0.094793
   5 H :    0.102342
   6 O :   -0.113033
   7 H :    0.190559
   8 C :   -0.380404
   9 H :    0.104426
  10 H :    0.099900
  11 H :    0.095610
  12 O :   -0.103752
  13 H :    0.189772
  14 C :   -0.381118
  15 H :    0.110620
  16 H :    0.096477
  17 H :    0.095827

  Mayer bond orders larger than 0.100000
B(  0-O ,  1-H ) :   0.8438 B(  0-O ,  2-C ) :   0.9161 B(  2-C ,  3-H ) :   0.9342
B(  2-C ,  4-H ) :   0.9386 B(  2-C ,  5-H ) :   0.9421 B(  6-O ,  7-H ) :   0.8407
B(  6-O ,  8-C ) :   0.9178 B(  8-C ,  9-H ) :   0.9409 B(  8-C , 10-H ) :   0.9393
B(  8-C , 11-H ) :   0.9354 B( 12-O , 13-H ) :   0.8368 B( 12-O , 14-C ) :   0.9297
B( 14-C , 15-H ) :   0.9378 B( 14-C , 16-H ) :   0.9393 B( 14-C , 17-H ) :   0.9371

MP2 TOTAL ENERGY:     -346.523618464 Eh
FINAL SINGLE POINT ENERGY      -346.523618463739

DIPOLE MOMENT
-------------
                                X             Y             Z
Electronic contribution:     -1.15926       0.13567      -1.74755
Nuclear contribution   :      1.71785      -0.21195       1.83874
                        -----------------------------------------
Total Dipole Moment    :      0.55860      -0.07628       0.09119
                        -----------------------------------------
Magnitude (a.u.)       :      0.57111
Magnitude (Debye)      :      1.45164

Rotational constants in cm-1:     0.063992     0.027259     0.020347
Rotational constants in MHz :  1918.442976   817.218238   609.976409

                             ****ORCA TERMINATED NORMALLY****
TOTAL RUN TIME: 0 days 0 hours 1 minutes 6 seconds 851 msec
