                         Program Version 4.2.0 -  RELEASE  -
|  1> # 12h2o.su.etal.mol2,3,4,6,8,9,10
|  2> ! MP2 def2-TZVP EnGrad TightSCF
|  3>
|  4> %pal
|  5>     nprocs 6
|  6> end
|  7>
|  8> %maxcore 8000
|  9>
| 10> %scf
| 11>     ConvForced true
| 12> end
| 13>
| 14> *xyz 0 1
| 15> O   0.923410000  -1.794470000  -2.768350000
| 16> H   1.359750000  -2.338250000  -3.430940000
| 17> H   1.303000000  -0.879480000  -2.865760000
| 18> O  -1.752130000  -0.741530000  -2.896280000
| 19> H  -2.036450000  -0.920500000  -1.984040000
| 20> H  -0.921210000  -1.242140000  -2.984230000
| 21> O  -0.885520000   1.737840000   0.052730000
| 22> H  -1.032320000   2.090180000  -0.841890000
| 23> H  -1.284090000   0.839590000   0.017130000
| 24> O   1.737840000   0.885520000  -0.052730000
| 25> H   2.090180000   1.032320000   0.841890000
| 26> H   0.839590000   1.284090000  -0.017130000
| 27> O   1.752130000   0.741530000  -2.896280000
| 28> H   2.036450000   0.920500000  -1.984040000
| 29> H   0.921210000   1.242140000  -2.984230000
| 30> O   0.741530000  -1.752130000   2.896280000
| 31> H   0.920500000  -2.036450000   1.984040000
| 32> H   1.242140000  -0.921210000   2.984230000
| 33> O  -0.923410000   1.794470000  -2.768350000
| 34> H  -1.359750000   2.338250000  -3.430940000
| 35> H  -1.303000000   0.879480000  -2.865760000
| 36> *
| 37>
| 38>                          ****END OF INPUT****

CARTESIAN COORDINATES (ANGSTROEM)
---------------------------------
  O      0.923410   -1.794470   -2.768350
  H      1.359750   -2.338250   -3.430940
  H      1.303000   -0.879480   -2.865760
  O     -1.752130   -0.741530   -2.896280
  H     -2.036450   -0.920500   -1.984040
  H     -0.921210   -1.242140   -2.984230
  O     -0.885520    1.737840    0.052730
  H     -1.032320    2.090180   -0.841890
  H     -1.284090    0.839590    0.017130
  O      1.737840    0.885520   -0.052730
  H      2.090180    1.032320    0.841890
  H      0.839590    1.284090   -0.017130
  O      1.752130    0.741530   -2.896280
  H      2.036450    0.920500   -1.984040
  H      0.921210    1.242140   -2.984230
  O      0.741530   -1.752130    2.896280
  H      0.920500   -2.036450    1.984040
  H      1.242140   -0.921210    2.984230
  O     -0.923410    1.794470   -2.768350
  H     -1.359750    2.338250   -3.430940
  H     -1.303000    0.879480   -2.865760

 Total Charge           Charge          ....    0
 Multiplicity           Mult            ....    1
 Number of Electrons    NEL             ....   70
 Basis Dimension        Dim             ....  301

ORBITAL ENERGIES
----------------

  NO   OCC          E(Eh)            E(eV)
   0   2.0000     -20.586404      -560.1845
   1   2.0000     -20.580805      -560.0322
   2   2.0000     -20.580129      -560.0138
   3   2.0000     -20.562160      -559.5248
   4   2.0000     -20.558455      -559.4240
   5   2.0000     -20.547708      -559.1316
   6   2.0000     -20.545337      -559.0670
   7   2.0000      -1.382742       -37.6263
   8   2.0000      -1.368326       -37.2340
   9   2.0000      -1.358355       -36.9627
  10   2.0000      -1.346894       -36.6509
  11   2.0000      -1.341306       -36.4988
  12   2.0000      -1.337204       -36.3872
  13   2.0000      -1.322294       -35.9814
  14   2.0000      -0.746159       -20.3040
  15   2.0000      -0.737041       -20.0559
  16   2.0000      -0.727002       -19.7827
  17   2.0000      -0.716162       -19.4877
  18   2.0000      -0.708127       -19.2691
  19   2.0000      -0.704163       -19.1613
  20   2.0000      -0.703195       -19.1349
  21   2.0000      -0.642153       -17.4739
  22   2.0000      -0.612812       -16.6755
  23   2.0000      -0.602854       -16.4045
  24   2.0000      -0.594756       -16.1841
  25   2.0000      -0.580123       -15.7859
  26   2.0000      -0.578707       -15.7474
  27   2.0000      -0.552576       -15.0364
  28   2.0000      -0.528912       -14.3924
  29   2.0000      -0.525841       -14.3089
  30   2.0000      -0.520497       -14.1635
  31   2.0000      -0.508047       -13.8247
  32   2.0000      -0.505654       -13.7596
  33   2.0000      -0.496418       -13.5082
  34   2.0000      -0.492230       -13.3943
  35   0.0000       0.085529         2.3274
  36   0.0000       0.114799         3.1238
  37   0.0000       0.139123         3.7857
  38   0.0000       0.153166         4.1679
  39   0.0000       0.174353         4.7444

MULLIKEN ATOMIC CHARGES
-----------------------
   0 O :   -0.748528
   1 H :    0.340370
   2 H :    0.385077
   3 O :   -0.703601
   4 H :    0.344661
   5 H :    0.384890
   6 O :   -0.691673
   7 H :    0.383249
   8 H :    0.335726
   9 O :   -0.728497
  10 H :    0.332851
  11 H :    0.362210
  12 O :   -0.724491
  13 H :    0.387958
  14 H :    0.363690
  15 O :   -0.675669
  16 H :    0.343565
  17 H :    0.330678
  18 O :   -0.759917
  19 H :    0.356107
  20 H :    0.381343
Sum of atomic charges:   -0.0000000

LOEWDIN ATOMIC CHARGES
----------------------
   0 O :   -0.343113
   1 H :    0.155266
   2 H :    0.145930
   3 O :   -0.279606
   4 H :    0.165698
   5 H :    0.157127
   6 O :   -0.295197
   7 H :    0.153713
   8 H :    0.168460
   9 O :   -0.341186
  10 H :    0.160212
  11 H :    0.144961
  12 O :   -0.288013
  13 H :    0.158669
  14 H :    0.147298
  15 O :   -0.331467
  16 H :    0.167187
  17 H :    0.162801
  18 O :   -0.315869
  19 H :    0.161685
  20 H :    0.145443

  Mayer bond orders larger than 0.100000
B(  0-O ,  1-H ) :   0.8486 B(  0-O ,  2-H ) :   0.7388 B(  2-H , 12-O ) :   0.1169
B(  3-O ,  4-H ) :   0.8449 B(  3-O ,  5-H ) :   0.7701 B(  3-O , 20-H ) :   0.1145
B(  6-O ,  7-H ) :   0.7950 B(  6-O ,  8-H ) :   0.8464 B(  9-O , 10-H ) :   0.8519
B(  9-O , 11-H ) :   0.7707 B( 12-O , 13-H ) :   0.7990 B( 12-O , 14-H ) :   0.8062
B( 15-O , 16-H ) :   0.8485 B( 15-O , 17-H ) :   0.8562 B( 18-O , 19-H ) :   0.8375
B( 18-O , 20-H ) :   0.7330

MP2 TOTAL ENERGY:     -534.264456400 Eh
FINAL SINGLE POINT ENERGY      -534.264456399937

DIPOLE MOMENT
-------------
                                X             Y             Z
Electronic contribution:     -0.12232       0.02170       0.00195
Nuclear contribution   :     -0.34268       0.45452      -0.57908
                        -----------------------------------------
Total Dipole Moment    :     -0.46501       0.47622      -0.57713
                        -----------------------------------------
Magnitude (a.u.)       :      0.88097
Magnitude (Debye)      :      2.23924

Rotational constants in cm-1:     0.038241     0.022009     0.020286
Rotational constants in MHz :  1146.446665   659.818579   608.146844

                             ****ORCA TERMINATED NORMALLY****
TOTAL RUN TIME: 0 days 0 hours 1 minutes 51 seconds 259 msec
