                         Program Version 3.0.3 - RELEASE   -
|  1> ! BP86 Def2-SVP TightSCF Opt D3BJ COSMO
|  2>
|  3> %pal nprocs 12 end
|  4>
|  5> %scf
|  6>         maxiter 800
|  7> end
|  8>
|  9> %cosmo
| 10> 	SMD true
| 11>         solvent "WATER"
| 12> end
| 13>
| 14> * xyz  0  1
| 15>   O      0.626597    2.379461    0.094233
| 16>   H     -0.213615    2.080784   -0.253715
| 17>   H      0.536947    3.330545    0.154512
| 18>   O     -2.032177   -0.481306    1.304586
| 19>   H     -1.239469   -0.118478    1.699809
| 20>   H     -2.694487   -0.416911    1.992649
| 21>   O     -1.649780    1.290088   -0.812103
| 22>   H     -1.962881    0.718868   -0.110742
| 23>   H     -1.286441    0.691632   -1.464841
| 24>   O      1.704338   -1.378437    0.833847
| 25>   H      0.963887   -1.873508    0.483319
| 26>   H      1.990121   -0.826462    0.105916
| 27>   O     -0.269659   -0.559013   -2.261623
| 28>   H     -0.416590   -1.298503   -1.671879
| 29>   H      0.616019   -0.260065   -2.055625
| 30>   O      2.096410    0.456491   -1.211328
| 31>   H      1.682289    1.202595   -0.777665
| 32>   H      2.890792    0.817990   -1.604402
| 33>   O     -0.688242   -2.358141   -0.190066
| 34>   H     -1.245921   -1.791886    0.343395
| 35>   H     -1.116937   -3.213479   -0.160919
| 36>   O      0.294926    0.539564    2.160439
| 37>   H      0.886527   -0.151572    1.862830
| 38>   H      0.482342    1.280515    1.584159
| 39> **                         ****END OF INPUT****
 Total Charge           Charge          ....    0
 Multiplicity           Mult            ....    1
 Number of Electrons    NEL             ....   80
Dispersion correction           -0.022500154
FINAL SINGLE POINT ENERGY      -611.107620919472
Dispersion correction            ...
Dispersion correction           -0.022087574
FINAL SINGLE POINT ENERGY      -611.123650247227
Dispersion correction            ...
Dispersion correction           -0.022402841
FINAL SINGLE POINT ENERGY      -611.126601838239
Dispersion correction            ...
FINAL SINGLE POINT ENERGY      -611.128465749226
FINAL SINGLE POINT ENERGY      -611.129858640939
FINAL SINGLE POINT ENERGY      -611.130849749650
FINAL SINGLE POINT ENERGY      -611.131442377465
FINAL SINGLE POINT ENERGY      -611.131826519422
FINAL SINGLE POINT ENERGY      -611.132052502970
FINAL SINGLE POINT ENERGY      -611.132394688541
FINAL SINGLE POINT ENERGY      -611.134710544951
FINAL SINGLE POINT ENERGY      -611.134738975752
FINAL SINGLE POINT ENERGY      -611.134761056605
FINAL SINGLE POINT ENERGY      -611.134791328734
FINAL SINGLE POINT ENERGY      -611.134828739048
FINAL SINGLE POINT ENERGY      -611.134869242062
FINAL SINGLE POINT ENERGY      -611.134882453548
Dispersion correction            ...
Dispersion correction           -0.023803477
FINAL SINGLE POINT ENERGY      -611.134884748457
Dispersion correction            ...
Dispersion correction           -0.023792836
FINAL SINGLE POINT ENERGY      -611.134879635128
Dispersion correction            ...
                    ***********************HURRAY********************

CARTESIAN COORDINATES (ANGSTROEM)
---------------------------------
  O      0.528254    2.158112    0.163610
  H     -0.377110    1.968469   -0.302058
  H      0.670695    3.123488    0.107304
  O     -1.863140   -0.345830    1.158438
  H     -1.054454   -0.029107    1.723257
  H     -2.577775   -0.555056    1.791531
  O     -1.672198    1.360857   -0.926409
  H     -1.927422    0.796940   -0.140682
  H     -1.238760    0.677215   -1.538834
  O      1.740492   -1.356448    0.921144
  H      0.943659   -1.831704    0.547603
  H      1.989409   -0.763043    0.155778
  O     -0.353042   -0.519487   -2.303934
  H     -0.492561   -1.268765   -1.657696
  H      0.556143   -0.199198   -2.038303
  O      1.934162    0.381827   -1.147005
  H      1.514639    1.180591   -0.682771
  H      2.732617    0.723760   -1.594496
  O     -0.591247   -2.204091   -0.187589
  H     -1.192571   -1.602002    0.365344
  H     -0.977890   -3.099033   -0.118942
  O      0.320376    0.470497    2.268883
  H      0.913698   -0.240058    1.850415
  H      0.429020    1.232838    1.630198

 Multiplicity           Mult            ....    1
 Number of Electrons    NEL             ....   80
 Basis Dimension        Dim             ....  192

ORBITAL ENERGIES
----------------

  NO   OCC          E(Eh)            E(eV)
   0   2.0000     -18.782082      -511.0864
   1   2.0000     -18.781808      -511.0790
   2   2.0000     -18.781382      -511.0674
   3   2.0000     -18.780706      -511.0490
   4   2.0000     -18.758548      -510.4460
   5   2.0000     -18.757982      -510.4306
   6   2.0000     -18.756497      -510.3902
   7   2.0000     -18.756436      -510.3886
   8   2.0000      -0.921453       -25.0740
   9   2.0000      -0.911017       -24.7900
  10   2.0000      -0.901798       -24.5392
  11   2.0000      -0.894026       -24.3277
  12   2.0000      -0.888996       -24.1908
  13   2.0000      -0.881150       -23.9773
  14   2.0000      -0.871190       -23.7063
  15   2.0000      -0.861584       -23.4449
  16   2.0000      -0.484935       -13.1957
  17   2.0000      -0.484115       -13.1734
  18   2.0000      -0.466715       -12.7000
  19   2.0000      -0.463966       -12.6251
  20   2.0000      -0.452309       -12.3080
  21   2.0000      -0.446081       -12.1385
  22   2.0000      -0.444774       -12.1029
  23   2.0000      -0.444214       -12.0877
  24   2.0000      -0.392621       -10.6838
  25   2.0000      -0.363752        -9.8982
  26   2.0000      -0.355803        -9.6819
  27   2.0000      -0.342913        -9.3311
  28   2.0000      -0.334652        -9.1063
  29   2.0000      -0.324466        -8.8292
  30   2.0000      -0.316683        -8.6174
  31   2.0000      -0.293705        -7.9921
  32   2.0000      -0.267901        -7.2900
  33   2.0000      -0.267307        -7.2738
  34   2.0000      -0.263553        -7.1716
  35   2.0000      -0.260949        -7.1008
  36   2.0000      -0.252406        -6.8683
  37   2.0000      -0.251070        -6.8320
  38   2.0000      -0.242937        -6.6107
  39   2.0000      -0.242436        -6.5970
  40   0.0000       0.023771         0.6468
  41   0.0000       0.054004         1.4695
  42   0.0000       0.071620         1.9489
  43   0.0000       0.086770         2.3611
  44   0.0000       0.121834         3.3153

MULLIKEN ATOMIC CHARGES
-----------------------
   0 O :   -0.332540
   1 H :    0.166885
   2 H :    0.227962
   3 O :   -0.333153
   4 H :    0.166128
   5 H :    0.229097
   6 O :   -0.371608
   7 H :    0.158070
   8 H :    0.147906
   9 O :   -0.375196
  10 H :    0.150521
  11 H :    0.155761
  12 O :   -0.373708
  13 H :    0.153072
  14 H :    0.151879
  15 O :   -0.319762
  16 H :    0.167915
  17 H :    0.226262
  18 O :   -0.317360
  19 H :    0.163860
  20 H :    0.225979
  21 O :   -0.371407
  22 H :    0.146968
  23 H :    0.156472
Sum of atomic charges:   -0.0000000

LOEWDIN ATOMIC CHARGES
----------------------
   0 O :   -0.071677
   1 H :    0.036132
   2 H :    0.114622
   3 O :   -0.072166
   4 H :    0.036111
   5 H :    0.115011
   6 O :   -0.142922
   7 H :    0.037129
   8 H :    0.031681
   9 O :   -0.159019
  10 H :    0.035743
  11 H :    0.037251
  12 O :   -0.157766
  13 H :    0.037568
  14 H :    0.036145
  15 O :   -0.075162
  16 H :    0.040635
  17 H :    0.116328
  18 O :   -0.076642
  19 H :    0.039771
  20 H :    0.116273
  21 O :   -0.143465
  22 H :    0.031351
  23 H :    0.037067

  Mayer bond orders larger than 0.1
B(  0-O ,  1-H ) :   0.7826 B(  0-O ,  2-H ) :   0.9557 B(  0-O , 16-H ) :   0.2302
B(  0-O , 23-H ) :   0.1882 B(  1-H ,  6-O ) :   0.2988 B(  3-O ,  4-H ) :   0.7812
B(  3-O ,  5-H ) :   0.9548 B(  3-O ,  7-H ) :   0.1857 B(  3-O , 19-H ) :   0.2336
B(  4-H , 21-O ) :   0.3004 B(  6-O ,  7-H ) :   0.8954 B(  6-O ,  8-H ) :   0.8577
B(  8-H , 12-O ) :   0.2503 B(  9-O , 10-H ) :   0.8934 B(  9-O , 11-H ) :   0.8955
B(  9-O , 22-H ) :   0.2536 B( 10-H , 18-O ) :   0.1975 B( 11-H , 15-O ) :   0.1902
B( 12-O , 13-H ) :   0.8972 B( 12-O , 14-H ) :   0.8946 B( 13-H , 18-O ) :   0.1901
B( 14-H , 15-O ) :   0.1950 B( 15-O , 16-H ) :   0.8306 B( 15-O , 17-H ) :   0.9566
B( 18-O , 19-H ) :   0.8298 B( 18-O , 20-H ) :   0.9567 B( 21-O , 22-H ) :   0.8550
B( 21-O , 23-H ) :   0.8949

Dispersion correction           -0.023791972
FINAL SINGLE POINT ENERGY      -611.134880801050

DIPOLE MOMENT
-------------
                                X             Y             Z
Electronic contribution:     -0.00896       0.02296       0.00154
Nuclear contribution   :     -0.14648       0.18684       0.16928
                        -----------------------------------------
Total Dipole Moment    :     -0.15543       0.20979       0.17082
                        -----------------------------------------
Magnitude (a.u.)       :      0.31201
Magnitude (Debye)      :      0.79308

                             ****ORCA TERMINATED NORMALLY****
TOTAL RUN TIME: 0 days 0 hours 48 minutes 13 seconds 829 msec
