                         Program Version 3.0.3 - RELEASE   -
|  1> ! B3LYP Def2-SVP def2-SVP/J RIJCOSX TightSCF Grid4 D3BJ OPT
|  2>
|  3> %pal nprocs 12 end
|  4>
|  5> %scf
|  6>         maxiter 400
|  7> end
|  8>
|  9> * xyz  0  1
| 10>   O      0.626597    2.379461    0.094233
| 11>   H     -0.213615    2.080784   -0.253715
| 12>   H      0.536947    3.330545    0.154512
| 13>   O     -2.032177   -0.481306    1.304586
| 14>   H     -1.239469   -0.118478    1.699809
| 15>   H     -2.694487   -0.416911    1.992649
| 16>   O     -1.649780    1.290088   -0.812103
| 17>   H     -1.962881    0.718868   -0.110742
| 18>   H     -1.286441    0.691632   -1.464841
| 19>   O      1.704338   -1.378437    0.833847
| 20>   H      0.963887   -1.873508    0.483319
| 21>   H      1.990121   -0.826462    0.105916
| 22>   O     -0.269659   -0.559013   -2.261623
| 23>   H     -0.416590   -1.298503   -1.671879
| 24>   H      0.616019   -0.260065   -2.055625
| 25>   O      2.096410    0.456491   -1.211328
| 26>   H      1.682289    1.202595   -0.777665
| 27>   H      2.890792    0.817990   -1.604402
| 28>   O     -0.688242   -2.358141   -0.190066
| 29>   H     -1.245921   -1.791886    0.343395
| 30>   H     -1.116937   -3.213479   -0.160919
| 31>   O      0.294926    0.539564    2.160439
| 32>   H      0.886527   -0.151572    1.862830
| 33>   H      0.482342    1.280515    1.584159
| 34> **                         ****END OF INPUT****
 Total Charge           Charge          ....    0
 Multiplicity           Mult            ....    1
 Number of Electrons    NEL             ....   80
Dispersion correction           -0.024417770
FINAL SINGLE POINT ENERGY      -610.767247096313
Dispersion correction            ...
Dispersion correction           -0.023939441
FINAL SINGLE POINT ENERGY      -610.776020770063
Dispersion correction            ...
Dispersion correction           -0.024219902
FINAL SINGLE POINT ENERGY      -610.777989561635
Dispersion correction            ...
FINAL SINGLE POINT ENERGY      -610.779348322670
FINAL SINGLE POINT ENERGY      -610.780211300257
FINAL SINGLE POINT ENERGY      -610.780562808291
FINAL SINGLE POINT ENERGY      -610.780649924908
FINAL SINGLE POINT ENERGY      -610.780862180139
FINAL SINGLE POINT ENERGY      -610.780986916686
FINAL SINGLE POINT ENERGY      -610.781162851269
FINAL SINGLE POINT ENERGY      -610.781683396846
FINAL SINGLE POINT ENERGY      -610.781687180711
FINAL SINGLE POINT ENERGY      -610.781685196637
FINAL SINGLE POINT ENERGY      -610.781679755532
FINAL SINGLE POINT ENERGY      -610.781673349664
FINAL SINGLE POINT ENERGY      -610.781666600571
FINAL SINGLE POINT ENERGY      -610.781660703030
Dispersion correction            ...
Dispersion correction           -0.025086198
FINAL SINGLE POINT ENERGY      -610.781658053973
Dispersion correction            ...
Dispersion correction           -0.025076257
FINAL SINGLE POINT ENERGY      -610.781659485198
Dispersion correction            ...
                    ***********************HURRAY********************

CARTESIAN COORDINATES (ANGSTROEM)
---------------------------------
  O      0.552584    2.276967    0.147284
  H     -0.336025    1.999273   -0.289116
  H      0.582073    3.242293    0.134809
  O     -1.947786   -0.386186    1.217680
  H     -1.093917   -0.062130    1.696353
  H     -2.640068   -0.438383    1.889775
  O     -1.595906    1.351226   -0.890194
  H     -1.944375    0.793575   -0.162278
  H     -1.232270    0.687413   -1.537749
  O      1.766949   -1.372897    0.878167
  H      1.014098   -1.886905    0.521506
  H      2.034766   -0.802654    0.128988
  O     -0.312690   -0.571443   -2.286782
  H     -0.455420   -1.311474   -1.661457
  H      0.590744   -0.261974   -2.074844
  O      2.011541    0.484894   -1.173570
  H      1.585976    1.258263   -0.714895
  H      2.795029    0.826613   -1.623387
  O     -0.676789   -2.274959   -0.124525
  H     -1.272053   -1.676942    0.404205
  H     -1.087606   -3.149479   -0.108015
  O      0.260409    0.407036    2.184500
  H      0.906230   -0.273482    1.845847
  H      0.449502    1.202129    1.642482

 Multiplicity           Mult            ....    1
 Number of Electrons    NEL             ....   80
 Basis Dimension        Dim             ....  192

ORBITAL ENERGIES
----------------

  NO   OCC          E(Eh)            E(eV)
   0   2.0000     -19.147408      -521.0275
   1   2.0000     -19.145672      -520.9802
   2   2.0000     -19.140232      -520.8322
   3   2.0000     -19.139148      -520.8027
   4   2.0000     -19.107184      -519.9329
   5   2.0000     -19.105340      -519.8827
   6   2.0000     -19.102111      -519.7949
   7   2.0000     -19.099192      -519.7154
   8   2.0000      -1.012945       -27.5636
   9   2.0000      -1.007364       -27.4118
  10   2.0000      -0.995112       -27.0784
  11   2.0000      -0.988582       -26.9007
  12   2.0000      -0.971602       -26.4386
  13   2.0000      -0.965352       -26.2686
  14   2.0000      -0.952680       -25.9237
  15   2.0000      -0.947385       -25.7796
  16   2.0000      -0.553665       -15.0660
  17   2.0000      -0.552222       -15.0267
  18   2.0000      -0.529073       -14.3968
  19   2.0000      -0.527222       -14.3464
  20   2.0000      -0.504803       -13.7364
  21   2.0000      -0.501555       -13.6480
  22   2.0000      -0.496956       -13.5229
  23   2.0000      -0.494948       -13.4682
  24   2.0000      -0.443424       -12.0662
  25   2.0000      -0.413725       -11.2580
  26   2.0000      -0.412064       -11.2128
  27   2.0000      -0.385285       -10.4841
  28   2.0000      -0.381045       -10.3688
  29   2.0000      -0.366385        -9.9698
  30   2.0000      -0.363054        -9.8792
  31   2.0000      -0.334596        -9.1048
  32   2.0000      -0.324040        -8.8176
  33   2.0000      -0.322279        -8.7697
  34   2.0000      -0.317383        -8.6364
  35   2.0000      -0.315709        -8.5909
  36   2.0000      -0.295545        -8.0422
  37   2.0000      -0.293193        -7.9782
  38   2.0000      -0.279211        -7.5977
  39   2.0000      -0.277000        -7.5375
  40   0.0000       0.024052         0.6545
  41   0.0000       0.043926         1.1953
  42   0.0000       0.064304         1.7498
  43   0.0000       0.073337         1.9956
  44   0.0000       0.133644         3.6366

MULLIKEN ATOMIC CHARGES
-----------------------
   0 O :   -0.336209
   1 H :    0.177047
   2 H :    0.177754
   3 O :   -0.337751
   4 H :    0.178686
   5 H :    0.178006
   6 O :   -0.327014
   7 H :    0.147897
   8 H :    0.157433
   9 O :   -0.319819
  10 H :    0.146480
  11 H :    0.144526
  12 O :   -0.323162
  13 H :    0.142464
  14 H :    0.143360
  15 O :   -0.299152
  16 H :    0.156058
  17 H :    0.178330
  18 O :   -0.300735
  19 H :    0.155381
  20 H :    0.177525
  21 O :   -0.325647
  22 H :    0.159774
  23 H :    0.148767
Sum of atomic charges:   -0.0000000

LOEWDIN ATOMIC CHARGES
----------------------
   0 O :   -0.103059
   1 H :    0.033621
   2 H :    0.082077
   3 O :   -0.099941
   4 H :    0.030148
   5 H :    0.081792
   6 O :   -0.094407
   7 H :    0.038683
   8 H :    0.041237
   9 O :   -0.114732
  10 H :    0.040495
  11 H :    0.039034
  12 O :   -0.120937
  13 H :    0.037560
  14 H :    0.037682
  15 O :   -0.086516
  16 H :    0.040718
  17 H :    0.086539
  18 O :   -0.088944
  19 H :    0.038840
  20 H :    0.086170
  21 O :   -0.087256
  22 H :    0.039634
  23 H :    0.041560

  Mayer bond orders larger than 0.1
B(  0-O ,  1-H ) :   0.7854 B(  0-O ,  2-H ) :   0.9814 B(  0-O , 16-H ) :   0.2039
B(  0-O , 23-H ) :   0.1521 B(  1-H ,  6-O ) :   0.2893 B(  3-O ,  4-H ) :   0.7780
B(  3-O ,  5-H ) :   0.9809 B(  3-O ,  7-H ) :   0.1573 B(  3-O , 19-H ) :   0.2070
B(  4-H , 21-O ) :   0.2950 B(  6-O ,  7-H ) :   0.9250 B(  6-O ,  8-H ) :   0.8827
B(  8-H , 12-O ) :   0.2165 B(  9-O , 10-H ) :   0.9348 B(  9-O , 11-H ) :   0.9331
B(  9-O , 22-H ) :   0.2231 B( 10-H , 18-O ) :   0.1446 B( 11-H , 15-O ) :   0.1487
B( 12-O , 13-H ) :   0.9321 B( 12-O , 14-H ) :   0.9344 B( 13-H , 18-O ) :   0.1519
B( 14-H , 15-O ) :   0.1481 B( 15-O , 16-H ) :   0.8654 B( 15-O , 17-H ) :   0.9813
B( 18-O , 19-H ) :   0.8628 B( 18-O , 20-H ) :   0.9815 B( 21-O , 22-H ) :   0.8760
B( 21-O , 23-H ) :   0.9277

Dispersion correction           -0.025070793
FINAL SINGLE POINT ENERGY      -610.781662786779

DIPOLE MOMENT
-------------
                                X             Y             Z
Electronic contribution:      0.04991      -0.03382       0.00474
Nuclear contribution   :     -0.18307       0.26374       0.15574
                        -----------------------------------------
Total Dipole Moment    :     -0.13316       0.22993       0.16048
                        -----------------------------------------
Magnitude (a.u.)       :      0.31040
Magnitude (Debye)      :      0.78899

                             ****ORCA TERMINATED NORMALLY****
TOTAL RUN TIME: 0 days 0 hours 34 minutes 45 seconds 427 msec
