                         Program Version 4.2.0 -  RELEASE  -
|  1> # 12h2o.su.etal.mol1,3,4
|  2> ! MP2 def2-TZVP EnGrad TightSCF
|  3>
|  4> %pal
|  5>     nprocs 6
|  6> end
|  7>
|  8> %maxcore 8000
|  9>
| 10> %scf
| 11>     ConvForced true
| 12> end
| 13>
| 14> *xyz 0 1
| 15> O  -1.794470000  -0.923410000   2.768350000
| 16> H  -2.338250000  -1.359750000   3.430940000
| 17> H  -0.879480000  -1.303000000   2.865760000
| 18> O  -1.752130000  -0.741530000  -2.896280000
| 19> H  -2.036450000  -0.920500000  -1.984040000
| 20> H  -0.921210000  -1.242140000  -2.984230000
| 21> O  -0.885520000   1.737840000   0.052730000
| 22> H  -1.032320000   2.090180000  -0.841890000
| 23> H  -1.284090000   0.839590000   0.017130000
| 24> *
| 25>
| 26>                          ****END OF INPUT****

CARTESIAN COORDINATES (ANGSTROEM)
---------------------------------
  O     -1.794470   -0.923410    2.768350
  H     -2.338250   -1.359750    3.430940
  H     -0.879480   -1.303000    2.865760
  O     -1.752130   -0.741530   -2.896280
  H     -2.036450   -0.920500   -1.984040
  H     -0.921210   -1.242140   -2.984230
  O     -0.885520    1.737840    0.052730
  H     -1.032320    2.090180   -0.841890
  H     -1.284090    0.839590    0.017130

 Total Charge           Charge          ....    0
 Multiplicity           Mult            ....    1
 Number of Electrons    NEL             ....   30
 Basis Dimension        Dim             ....  129

ORBITAL ENERGIES
----------------

  NO   OCC          E(Eh)            E(eV)
   0   2.0000     -20.572109      -559.7956
   1   2.0000     -20.569744      -559.7312
   2   2.0000     -20.552341      -559.2576
   3   2.0000      -1.351153       -36.7667
   4   2.0000      -1.344981       -36.5988
   5   2.0000      -1.328197       -36.1421
   6   2.0000      -0.713993       -19.4287
   7   2.0000      -0.713401       -19.4126
   8   2.0000      -0.690160       -18.7802
   9   2.0000      -0.588464       -16.0129
  10   2.0000      -0.581259       -15.8169
  11   2.0000      -0.567693       -15.4477
  12   2.0000      -0.515708       -14.0331
  13   2.0000      -0.512903       -13.9568
  14   2.0000      -0.495146       -13.4736
  15   0.0000       0.098491         2.6801
  16   0.0000       0.123989         3.3739
  17   0.0000       0.166493         4.5305
  18   0.0000       0.186921         5.0864
  19   0.0000       0.191537         5.2120

MULLIKEN ATOMIC CHARGES
-----------------------
   0 O :   -0.683735
   1 H :    0.341225
   2 H :    0.344605
   3 O :   -0.671208
   4 H :    0.332176
   5 H :    0.340990
   6 O :   -0.673610
   7 H :    0.337908
   8 H :    0.331649
Sum of atomic charges:   -0.0000000

LOEWDIN ATOMIC CHARGES
----------------------
   0 O :   -0.338882
   1 H :    0.159185
   2 H :    0.181659
   3 O :   -0.328462
   4 H :    0.161531
   5 H :    0.168626
   6 O :   -0.335193
   7 H :    0.164662
   8 H :    0.166874

  Mayer bond orders larger than 0.100000
B(  0-O ,  1-H ) :   0.8515 B(  0-O ,  2-H ) :   0.8442 B(  3-O ,  4-H ) :   0.8541
B(  3-O ,  5-H ) :   0.8505 B(  6-O ,  7-H ) :   0.8517 B(  6-O ,  8-H ) :   0.8513

MP2 TOTAL ENERGY:     -228.939750188 Eh
FINAL SINGLE POINT ENERGY      -228.939750188280

DIPOLE MOMENT
-------------
                                X             Y             Z
Electronic contribution:     -0.05709       0.26510      -0.07399
Nuclear contribution   :      0.31000      -1.69920       0.54442
                        -----------------------------------------
Total Dipole Moment    :      0.25291      -1.43410       0.47044
                        -----------------------------------------
Magnitude (a.u.)       :      1.53033
Magnitude (Debye)      :      3.88980

Rotational constants in cm-1:     0.183793     0.057482     0.044269
Rotational constants in MHz :  5509.976392  1723.279242  1327.147617

                             ****ORCA TERMINATED NORMALLY****
TOTAL RUN TIME: 0 days 0 hours 0 minutes 9 seconds 428 msec
