                         Program Version 4.2.0 -  RELEASE  -
|  1> # 12h2o.su.etal.mol0,1,7,8
|  2> ! MP2 def2-TZVP EnGrad TightSCF
|  3>
|  4> %pal
|  5>     nprocs 6
|  6> end
|  7>
|  8> %maxcore 8000
|  9>
| 10> %scf
| 11>     ConvForced true
| 12> end
| 13>
| 14> *xyz 0 1
| 15> O   1.794470000   0.923410000   2.768350000
| 16> H   2.338250000   1.359750000   3.430940000
| 17> H   0.879480000   1.303000000   2.865760000
| 18> O  -1.794470000  -0.923410000   2.768350000
| 19> H  -2.338250000  -1.359750000   3.430940000
| 20> H  -0.879480000  -1.303000000   2.865760000
| 21> O  -1.737840000  -0.885520000  -0.052730000
| 22> H  -2.090180000  -1.032320000   0.841890000
| 23> H  -0.839590000  -1.284090000  -0.017130000
| 24> O   1.752130000   0.741530000  -2.896280000
| 25> H   2.036450000   0.920500000  -1.984040000
| 26> H   0.921210000   1.242140000  -2.984230000
| 27> *
| 28>
| 29>                          ****END OF INPUT****

CARTESIAN COORDINATES (ANGSTROEM)
---------------------------------
  O      1.794470    0.923410    2.768350
  H      2.338250    1.359750    3.430940
  H      0.879480    1.303000    2.865760
  O     -1.794470   -0.923410    2.768350
  H     -2.338250   -1.359750    3.430940
  H     -0.879480   -1.303000    2.865760
  O     -1.737840   -0.885520   -0.052730
  H     -2.090180   -1.032320    0.841890
  H     -0.839590   -1.284090   -0.017130
  O      1.752130    0.741530   -2.896280
  H      2.036450    0.920500   -1.984040
  H      0.921210    1.242140   -2.984230

 Total Charge           Charge          ....    0
 Multiplicity           Mult            ....    1
 Number of Electrons    NEL             ....   40
 Basis Dimension        Dim             ....  172

ORBITAL ENERGIES
----------------

  NO   OCC          E(Eh)            E(eV)
   0   2.0000     -20.594669      -560.4094
   1   2.0000     -20.573657      -559.8377
   2   2.0000     -20.551321      -559.2299
   3   2.0000     -20.532036      -558.7051
   4   2.0000      -1.372508       -37.3479
   5   2.0000      -1.348962       -36.7071
   6   2.0000      -1.330573       -36.2067
   7   2.0000      -1.311080       -35.6763
   8   2.0000      -0.739376       -20.1195
   9   2.0000      -0.717102       -19.5133
  10   2.0000      -0.693418       -18.8689
  11   2.0000      -0.681107       -18.5339
  12   2.0000      -0.609080       -16.5739
  13   2.0000      -0.585505       -15.9324
  14   2.0000      -0.568371       -15.4662
  15   2.0000      -0.561042       -15.2667
  16   2.0000      -0.526866       -14.3368
  17   2.0000      -0.517008       -14.0685
  18   2.0000      -0.495544       -13.4844
  19   2.0000      -0.477699       -12.9988
  20   0.0000       0.092900         2.5279
  21   0.0000       0.128848         3.5061
  22   0.0000       0.134405         3.6573
  23   0.0000       0.170718         4.6455
  24   0.0000       0.196108         5.3364

MULLIKEN ATOMIC CHARGES
-----------------------
   0 O :   -0.692047
   1 H :    0.342247
   2 H :    0.350415
   3 O :   -0.697959
   4 H :    0.351523
   5 H :    0.355822
   6 O :   -0.695093
   7 H :    0.364091
   8 H :    0.320798
   9 O :   -0.678776
  10 H :    0.338261
  11 H :    0.340719
Sum of atomic charges:   -0.0000000

LOEWDIN ATOMIC CHARGES
----------------------
   0 O :   -0.342154
   1 H :    0.159638
   2 H :    0.182810
   3 O :   -0.311847
   4 H :    0.163145
   5 H :    0.184978
   6 O :   -0.347962
   7 H :    0.148068
   8 H :    0.163172
   9 O :   -0.333820
  10 H :    0.165741
  11 H :    0.168230

  Mayer bond orders larger than 0.100000
B(  0-O ,  1-H ) :   0.8509 B(  0-O ,  2-H ) :   0.8386 B(  3-O ,  4-H ) :   0.8418
B(  3-O ,  5-H ) :   0.8309 B(  6-O ,  7-H ) :   0.8226 B(  6-O ,  8-H ) :   0.8598
B(  9-O , 10-H ) :   0.8526 B(  9-O , 11-H ) :   0.8510

MP2 TOTAL ENERGY:     -305.259245734 Eh
FINAL SINGLE POINT ENERGY      -305.259245734017

DIPOLE MOMENT
-------------
                                X             Y             Z
Electronic contribution:     -0.03757       0.00916      -0.23961
Nuclear contribution   :     -0.00057       0.11171       2.72557
                        -----------------------------------------
Total Dipole Moment    :     -0.03814       0.12087       2.48596
                        -----------------------------------------
Magnitude (a.u.)       :      2.48919
Magnitude (Debye)      :      6.32703

Rotational constants in cm-1:     0.073319     0.037020     0.024773
Rotational constants in MHz :  2198.059776  1109.846064   742.669017

                             ****ORCA TERMINATED NORMALLY****
TOTAL RUN TIME: 0 days 0 hours 0 minutes 13 seconds 473 msec
