                         Program Version 4.2.0 -  RELEASE  -
|  1> # 12h2o.su.etal.mol4,6,7,8,9
|  2> ! MP2 def2-TZVP EnGrad TightSCF
|  3>
|  4> %pal
|  5>     nprocs 6
|  6> end
|  7>
|  8> %maxcore 8000
|  9>
| 10> %scf
| 11>     ConvForced true
| 12> end
| 13>
| 14> *xyz 0 1
| 15> O  -0.885520000   1.737840000   0.052730000
| 16> H  -1.032320000   2.090180000  -0.841890000
| 17> H  -1.284090000   0.839590000   0.017130000
| 18> O   1.737840000   0.885520000  -0.052730000
| 19> H   2.090180000   1.032320000   0.841890000
| 20> H   0.839590000   1.284090000  -0.017130000
| 21> O  -1.737840000  -0.885520000  -0.052730000
| 22> H  -2.090180000  -1.032320000   0.841890000
| 23> H  -0.839590000  -1.284090000  -0.017130000
| 24> O   1.752130000   0.741530000  -2.896280000
| 25> H   2.036450000   0.920500000  -1.984040000
| 26> H   0.921210000   1.242140000  -2.984230000
| 27> O   0.741530000  -1.752130000   2.896280000
| 28> H   0.920500000  -2.036450000   1.984040000
| 29> H   1.242140000  -0.921210000   2.984230000
| 30> *
| 31>
| 32>                          ****END OF INPUT****

CARTESIAN COORDINATES (ANGSTROEM)
---------------------------------
  O     -0.885520    1.737840    0.052730
  H     -1.032320    2.090180   -0.841890
  H     -1.284090    0.839590    0.017130
  O      1.737840    0.885520   -0.052730
  H      2.090180    1.032320    0.841890
  H      0.839590    1.284090   -0.017130
  O     -1.737840   -0.885520   -0.052730
  H     -2.090180   -1.032320    0.841890
  H     -0.839590   -1.284090   -0.017130
  O      1.752130    0.741530   -2.896280
  H      2.036450    0.920500   -1.984040
  H      0.921210    1.242140   -2.984230
  O      0.741530   -1.752130    2.896280
  H      0.920500   -2.036450    1.984040
  H      1.242140   -0.921210    2.984230

 Total Charge           Charge          ....    0
 Multiplicity           Mult            ....    1
 Number of Electrons    NEL             ....   50
 Basis Dimension        Dim             ....  215

ORBITAL ENERGIES
----------------

  NO   OCC          E(Eh)            E(eV)
   0   2.0000     -20.608937      -560.7977
   1   2.0000     -20.582887      -560.0888
   2   2.0000     -20.578708      -559.9751
   3   2.0000     -20.564996      -559.6020
   4   2.0000     -20.533978      -558.7579
   5   2.0000      -1.390804       -37.8457
   6   2.0000      -1.365357       -37.1533
   7   2.0000      -1.361790       -37.0562
   8   2.0000      -1.345910       -36.6241
   9   2.0000      -1.315383       -35.7934
  10   2.0000      -0.746872       -20.3234
  11   2.0000      -0.732311       -19.9272
  12   2.0000      -0.724686       -19.7197
  13   2.0000      -0.720507       -19.6060
  14   2.0000      -0.684683       -18.6312
  15   2.0000      -0.635512       -17.2932
  16   2.0000      -0.612117       -16.6566
  17   2.0000      -0.599134       -16.3033
  18   2.0000      -0.591397       -16.0927
  19   2.0000      -0.551443       -15.0055
  20   2.0000      -0.543867       -14.7994
  21   2.0000      -0.526580       -14.3290
  22   2.0000      -0.522125       -14.2077
  23   2.0000      -0.511971       -13.9314
  24   2.0000      -0.480226       -13.0676
  25   0.0000       0.074777         2.0348
  26   0.0000       0.116535         3.1711
  27   0.0000       0.125476         3.4144
  28   0.0000       0.160059         4.3554
  29   0.0000       0.189833         5.1656

MULLIKEN ATOMIC CHARGES
-----------------------
   0 O :   -0.708297
   1 H :    0.346092
   2 H :    0.372546
   3 O :   -0.728158
   4 H :    0.331973
   5 H :    0.353418
   6 O :   -0.684803
   7 H :    0.365691
   8 H :    0.358304
   9 O :   -0.691267
  10 H :    0.373480
  11 H :    0.309529
  12 O :   -0.670259
  13 H :    0.333580
  14 H :    0.338172
Sum of atomic charges:   -0.0000000

LOEWDIN ATOMIC CHARGES
----------------------
   0 O :   -0.307428
   1 H :    0.165094
   2 H :    0.146582
   3 O :   -0.342414
   4 H :    0.158896
   5 H :    0.141626
   6 O :   -0.285371
   7 H :    0.176556
   8 H :    0.178160
   9 O :   -0.339284
  10 H :    0.153625
  11 H :    0.152962
  12 O :   -0.326860
  13 H :    0.161398
  14 H :    0.166457

  Mayer bond orders larger than 0.100000
B(  0-O ,  1-H ) :   0.8440 B(  0-O ,  2-H ) :   0.7747 B(  0-O ,  5-H ) :   0.1047
B(  3-O ,  4-H ) :   0.8521 B(  3-O ,  5-H ) :   0.7690 B(  6-O ,  7-H ) :   0.8316
B(  6-O ,  8-H ) :   0.8305 B(  9-O , 10-H ) :   0.8165 B(  9-O , 11-H ) :   0.8678
B( 12-O , 13-H ) :   0.8531 B( 12-O , 14-H ) :   0.8512

MP2 TOTAL ENERGY:     -381.593964803 Eh
FINAL SINGLE POINT ENERGY      -381.593964802749

DIPOLE MOMENT
-------------
                                X             Y             Z
Electronic contribution:     -0.28380      -0.30135       0.08684
Nuclear contribution   :     -0.34326       0.56623       0.77428
                        -----------------------------------------
Total Dipole Moment    :     -0.62706       0.26488       0.86112
                        -----------------------------------------
Magnitude (a.u.)       :      1.09767
Magnitude (Debye)      :      2.79007

Rotational constants in cm-1:     0.070792     0.036846     0.030711
Rotational constants in MHz :  2122.288238  1104.611807   920.695082

                             ****ORCA TERMINATED NORMALLY****
TOTAL RUN TIME: 0 days 0 hours 1 minutes 7 seconds 54 msec
