                         Program Version 4.2.0 -  RELEASE  -
|  1> # 12h2o.su.etal.mol0,1,2,9,11
|  2> ! MP2 def2-TZVP EnGrad TightSCF
|  3>
|  4> %pal
|  5>     nprocs 6
|  6> end
|  7>
|  8> %maxcore 8000
|  9>
| 10> %scf
| 11>     ConvForced true
| 12> end
| 13>
| 14> *xyz 0 1
| 15> O   1.794470000   0.923410000   2.768350000
| 16> H   2.338250000   1.359750000   3.430940000
| 17> H   0.879480000   1.303000000   2.865760000
| 18> O  -1.794470000  -0.923410000   2.768350000
| 19> H  -2.338250000  -1.359750000   3.430940000
| 20> H  -0.879480000  -1.303000000   2.865760000
| 21> O   0.923410000  -1.794470000  -2.768350000
| 22> H   1.359750000  -2.338250000  -3.430940000
| 23> H   1.303000000  -0.879480000  -2.865760000
| 24> O   0.741530000  -1.752130000   2.896280000
| 25> H   0.920500000  -2.036450000   1.984040000
| 26> H   1.242140000  -0.921210000   2.984230000
| 27> O  -0.741530000   1.752130000   2.896280000
| 28> H  -0.920500000   2.036450000   1.984040000
| 29> H  -1.242140000   0.921210000   2.984230000
| 30> *
| 31>
| 32>                          ****END OF INPUT****

CARTESIAN COORDINATES (ANGSTROEM)
---------------------------------
  O      1.794470    0.923410    2.768350
  H      2.338250    1.359750    3.430940
  H      0.879480    1.303000    2.865760
  O     -1.794470   -0.923410    2.768350
  H     -2.338250   -1.359750    3.430940
  H     -0.879480   -1.303000    2.865760
  O      0.923410   -1.794470   -2.768350
  H      1.359750   -2.338250   -3.430940
  H      1.303000   -0.879480   -2.865760
  O      0.741530   -1.752130    2.896280
  H      0.920500   -2.036450    1.984040
  H      1.242140   -0.921210    2.984230
  O     -0.741530    1.752130    2.896280
  H     -0.920500    2.036450    1.984040
  H     -1.242140    0.921210    2.984230

 Total Charge           Charge          ....    0
 Multiplicity           Mult            ....    1
 Number of Electrons    NEL             ....   50
 Basis Dimension        Dim             ....  215

ORBITAL ENERGIES
----------------

  NO   OCC          E(Eh)            E(eV)
   0   2.0000     -20.566869      -559.6529
   1   2.0000     -20.564958      -559.6010
   2   2.0000     -20.564134      -559.5785
   3   2.0000     -20.545730      -559.0777
   4   2.0000     -20.543281      -559.0111
   5   2.0000      -1.361155       -37.0389
   6   2.0000      -1.353525       -36.8313
   7   2.0000      -1.340276       -36.4708
   8   2.0000      -1.328975       -36.1632
   9   2.0000      -1.321729       -35.9661
  10   2.0000      -0.720612       -19.6089
  11   2.0000      -0.718011       -19.5381
  12   2.0000      -0.708685       -19.2843
  13   2.0000      -0.708115       -19.2688
  14   2.0000      -0.704250       -19.1636
  15   2.0000      -0.618250       -16.8234
  16   2.0000      -0.591663       -16.1000
  17   2.0000      -0.577379       -15.7113
  18   2.0000      -0.576253       -15.6806
  19   2.0000      -0.553108       -15.0508
  20   2.0000      -0.508147       -13.8274
  21   2.0000      -0.507289       -13.8040
  22   2.0000      -0.504726       -13.7343
  23   2.0000      -0.496099       -13.4995
  24   2.0000      -0.493323       -13.4240
  25   0.0000       0.119284         3.2459
  26   0.0000       0.127827         3.4783
  27   0.0000       0.160388         4.3644
  28   0.0000       0.165349         4.4994
  29   0.0000       0.180671         4.9163

MULLIKEN ATOMIC CHARGES
-----------------------
   0 O :   -0.743153
   1 H :    0.340356
   2 H :    0.378627
   3 O :   -0.742325
   4 H :    0.340193
   5 H :    0.379568
   6 O :   -0.682798
   7 H :    0.339518
   8 H :    0.343445
   9 O :   -0.711090
  10 H :    0.357689
  11 H :    0.377189
  12 O :   -0.708867
  13 H :    0.353123
  14 H :    0.378526
Sum of atomic charges:    0.0000000

LOEWDIN ATOMIC CHARGES
----------------------
   0 O :   -0.341896
   1 H :    0.155152
   2 H :    0.144895
   3 O :   -0.341171
   4 H :    0.155197
   5 H :    0.145197
   6 O :   -0.339237
   7 H :    0.158124
   8 H :    0.181204
   9 O :   -0.285212
  10 H :    0.172986
  11 H :    0.153974
  12 O :   -0.284834
  13 H :    0.171069
  14 H :    0.154552

  Mayer bond orders larger than 0.100000
B(  0-O ,  1-H ) :   0.8489 B(  0-O ,  2-H ) :   0.7496 B(  2-H , 12-O ) :   0.1094
B(  3-O ,  4-H ) :   0.8490 B(  3-O ,  5-H ) :   0.7491 B(  5-H ,  9-O ) :   0.1089
B(  6-O ,  7-H ) :   0.8528 B(  6-O ,  8-H ) :   0.8454 B(  9-O , 10-H ) :   0.8377
B(  9-O , 11-H ) :   0.7829 B( 12-O , 13-H ) :   0.8407 B( 12-O , 14-H ) :   0.7803

MP2 TOTAL ENERGY:     -381.610154082 Eh
FINAL SINGLE POINT ENERGY      -381.610154081724

DIPOLE MOMENT
-------------
                                X             Y             Z
Electronic contribution:     -0.10917      -0.06864       0.10105
Nuclear contribution   :      0.67915       0.30898      -0.73962
                        -----------------------------------------
Total Dipole Moment    :      0.56998       0.24034      -0.63857
                        -----------------------------------------
Magnitude (a.u.)       :      0.88905
Magnitude (Debye)      :      2.25978

Rotational constants in cm-1:     0.063993     0.025968     0.024336
Rotational constants in MHz :  1918.469432   778.501198   729.581052

                             ****ORCA TERMINATED NORMALLY****
TOTAL RUN TIME: 0 days 0 hours 0 minutes 29 seconds 698 msec
