                         Program Version 4.2.0 -  RELEASE  -
|  1> # 12h2o.su.etal.mol0,1,2,3,4,6,10
|  2> ! MP2 def2-TZVP EnGrad TightSCF
|  3>
|  4> %pal
|  5>     nprocs 6
|  6> end
|  7>
|  8> %maxcore 8000
|  9>
| 10> %scf
| 11>     ConvForced true
| 12> end
| 13>
| 14> *xyz 0 1
| 15> O   1.794470000   0.923410000   2.768350000
| 16> H   2.338250000   1.359750000   3.430940000
| 17> H   0.879480000   1.303000000   2.865760000
| 18> O  -1.794470000  -0.923410000   2.768350000
| 19> H  -2.338250000  -1.359750000   3.430940000
| 20> H  -0.879480000  -1.303000000   2.865760000
| 21> O   0.923410000  -1.794470000  -2.768350000
| 22> H   1.359750000  -2.338250000  -3.430940000
| 23> H   1.303000000  -0.879480000  -2.865760000
| 24> O  -1.752130000  -0.741530000  -2.896280000
| 25> H  -2.036450000  -0.920500000  -1.984040000
| 26> H  -0.921210000  -1.242140000  -2.984230000
| 27> O  -0.885520000   1.737840000   0.052730000
| 28> H  -1.032320000   2.090180000  -0.841890000
| 29> H  -1.284090000   0.839590000   0.017130000
| 30> O   1.737840000   0.885520000  -0.052730000
| 31> H   2.090180000   1.032320000   0.841890000
| 32> H   0.839590000   1.284090000  -0.017130000
| 33> O  -0.923410000   1.794470000  -2.768350000
| 34> H  -1.359750000   2.338250000  -3.430940000
| 35> H  -1.303000000   0.879480000  -2.865760000
| 36> *
| 37>
| 38>                          ****END OF INPUT****

CARTESIAN COORDINATES (ANGSTROEM)
---------------------------------
  O      1.794470    0.923410    2.768350
  H      2.338250    1.359750    3.430940
  H      0.879480    1.303000    2.865760
  O     -1.794470   -0.923410    2.768350
  H     -2.338250   -1.359750    3.430940
  H     -0.879480   -1.303000    2.865760
  O      0.923410   -1.794470   -2.768350
  H      1.359750   -2.338250   -3.430940
  H      1.303000   -0.879480   -2.865760
  O     -1.752130   -0.741530   -2.896280
  H     -2.036450   -0.920500   -1.984040
  H     -0.921210   -1.242140   -2.984230
  O     -0.885520    1.737840    0.052730
  H     -1.032320    2.090180   -0.841890
  H     -1.284090    0.839590    0.017130
  O      1.737840    0.885520   -0.052730
  H      2.090180    1.032320    0.841890
  H      0.839590    1.284090   -0.017130
  O     -0.923410    1.794470   -2.768350
  H     -1.359750    2.338250   -3.430940
  H     -1.303000    0.879480   -2.865760

 Total Charge           Charge          ....    0
 Multiplicity           Mult            ....    1
 Number of Electrons    NEL             ....   70
 Basis Dimension        Dim             ....  301

ORBITAL ENERGIES
----------------

  NO   OCC          E(Eh)            E(eV)
   0   2.0000     -20.580751      -560.0307
   1   2.0000     -20.574758      -559.8676
   2   2.0000     -20.571687      -559.7841
   3   2.0000     -20.567520      -559.6707
   4   2.0000     -20.545447      -559.0700
   5   2.0000     -20.540277      -558.9293
   6   2.0000     -20.482033      -557.3444
   7   2.0000      -1.367646       -37.2155
   8   2.0000      -1.354907       -36.8689
   9   2.0000      -1.349586       -36.7241
  10   2.0000      -1.342800       -36.5394
  11   2.0000      -1.332868       -36.2692
  12   2.0000      -1.319889       -35.9160
  13   2.0000      -1.266360       -34.4594
  14   2.0000      -0.731699       -19.9106
  15   2.0000      -0.717748       -19.5309
  16   2.0000      -0.716631       -19.5005
  17   2.0000      -0.710588       -19.3361
  18   2.0000      -0.707897       -19.2628
  19   2.0000      -0.691811       -18.8251
  20   2.0000      -0.649796       -17.6819
  21   2.0000      -0.618079       -16.8188
  22   2.0000      -0.593100       -16.1391
  23   2.0000      -0.588275       -16.0078
  24   2.0000      -0.579496       -15.7689
  25   2.0000      -0.575989       -15.6734
  26   2.0000      -0.557736       -15.1768
  27   2.0000      -0.533153       -14.5078
  28   2.0000      -0.522695       -14.2233
  29   2.0000      -0.511622       -13.9220
  30   2.0000      -0.510927       -13.9030
  31   2.0000      -0.501655       -13.6507
  32   2.0000      -0.489236       -13.3128
  33   2.0000      -0.474910       -12.9230
  34   2.0000      -0.433315       -11.7911
  35   0.0000       0.102019         2.7761
  36   0.0000       0.119522         3.2523
  37   0.0000       0.139113         3.7855
  38   0.0000       0.145147         3.9497
  39   0.0000       0.165338         4.4991

MULLIKEN ATOMIC CHARGES
-----------------------
   0 O :   -0.699052
   1 H :    0.343175
   2 H :    0.363390
   3 O :   -0.692125
   4 H :    0.340282
   5 H :    0.353762
   6 O :   -0.703378
   7 H :    0.349728
   8 H :    0.380743
   9 O :   -0.700037
  10 H :    0.348973
  11 H :    0.379906
  12 O :   -0.699850
  13 H :    0.378824
  14 H :    0.333429
  15 O :   -0.744489
  16 H :    0.352895
  17 H :    0.346897
  18 O :   -0.736319
  19 H :    0.335825
  20 H :    0.367419
Sum of atomic charges:   -0.0000000

LOEWDIN ATOMIC CHARGES
----------------------
   0 O :   -0.313274
   1 H :    0.159162
   2 H :    0.187251
   3 O :   -0.341437
   4 H :    0.158892
   5 H :    0.184369
   6 O :   -0.310130
   7 H :    0.162961
   8 H :    0.195839
   9 O :   -0.280752
  10 H :    0.167807
  11 H :    0.156089
  12 O :   -0.302036
  13 H :    0.152817
  14 H :    0.165826
  15 O :   -0.376910
  16 H :    0.141558
  17 H :    0.136452
  18 O :   -0.340199
  19 H :    0.153253
  20 H :    0.142464

  Mayer bond orders larger than 0.100000
B(  0-O ,  1-H ) :   0.8463 B(  0-O ,  2-H ) :   0.8262 B(  3-O ,  4-H ) :   0.8517
B(  3-O ,  5-H ) :   0.8361 B(  6-O ,  7-H ) :   0.8428 B(  6-O ,  8-H ) :   0.8138
B(  9-O , 10-H ) :   0.8428 B(  9-O , 11-H ) :   0.7875 B(  9-O , 20-H ) :   0.1003
B( 12-O , 13-H ) :   0.7953 B( 12-O , 14-H ) :   0.8457 B( 15-O , 16-H ) :   0.8337
B( 15-O , 17-H ) :   0.8014 B( 18-O , 19-H ) :   0.8512 B( 18-O , 20-H ) :   0.7586

MP2 TOTAL ENERGY:     -534.237753502 Eh
FINAL SINGLE POINT ENERGY      -534.237753502007

DIPOLE MOMENT
-------------
                                X             Y             Z
Electronic contribution:      0.00078      -0.22052      -0.17798
Nuclear contribution   :     -0.45337      -0.56611       0.68611
                        -----------------------------------------
Total Dipole Moment    :     -0.45259      -0.78662       0.50812
                        -----------------------------------------
Magnitude (a.u.)       :      1.04009
Magnitude (Debye)      :      2.64371

Rotational constants in cm-1:     0.035848     0.018160     0.017151
Rotational constants in MHz :  1074.693631   544.429019   514.178642

                             ****ORCA TERMINATED NORMALLY****
TOTAL RUN TIME: 0 days 0 hours 1 minutes 35 seconds 882 msec
