                         Program Version 4.2.0 -  RELEASE  -
|  1> # 12h2o.su.etal.mol0,4,5,6,7,8,10
|  2> ! MP2 def2-TZVP EnGrad TightSCF
|  3>
|  4> %pal
|  5>     nprocs 6
|  6> end
|  7>
|  8> %maxcore 8000
|  9>
| 10> %scf
| 11>     ConvForced true
| 12> end
| 13>
| 14> *xyz 0 1
| 15> O   1.794470000   0.923410000   2.768350000
| 16> H   2.338250000   1.359750000   3.430940000
| 17> H   0.879480000   1.303000000   2.865760000
| 18> O  -0.885520000   1.737840000   0.052730000
| 19> H  -1.032320000   2.090180000  -0.841890000
| 20> H  -1.284090000   0.839590000   0.017130000
| 21> O   0.885520000  -1.737840000   0.052730000
| 22> H   1.284090000  -0.839590000   0.017130000
| 23> H   1.032320000  -2.090180000  -0.841890000
| 24> O   1.737840000   0.885520000  -0.052730000
| 25> H   2.090180000   1.032320000   0.841890000
| 26> H   0.839590000   1.284090000  -0.017130000
| 27> O  -1.737840000  -0.885520000  -0.052730000
| 28> H  -2.090180000  -1.032320000   0.841890000
| 29> H  -0.839590000  -1.284090000  -0.017130000
| 30> O   1.752130000   0.741530000  -2.896280000
| 31> H   2.036450000   0.920500000  -1.984040000
| 32> H   0.921210000   1.242140000  -2.984230000
| 33> O  -0.923410000   1.794470000  -2.768350000
| 34> H  -1.359750000   2.338250000  -3.430940000
| 35> H  -1.303000000   0.879480000  -2.865760000
| 36> *
| 37>
| 38>                          ****END OF INPUT****

CARTESIAN COORDINATES (ANGSTROEM)
---------------------------------
  O      1.794470    0.923410    2.768350
  H      2.338250    1.359750    3.430940
  H      0.879480    1.303000    2.865760
  O     -0.885520    1.737840    0.052730
  H     -1.032320    2.090180   -0.841890
  H     -1.284090    0.839590    0.017130
  O      0.885520   -1.737840    0.052730
  H      1.284090   -0.839590    0.017130
  H      1.032320   -2.090180   -0.841890
  O      1.737840    0.885520   -0.052730
  H      2.090180    1.032320    0.841890
  H      0.839590    1.284090   -0.017130
  O     -1.737840   -0.885520   -0.052730
  H     -2.090180   -1.032320    0.841890
  H     -0.839590   -1.284090   -0.017130
  O      1.752130    0.741530   -2.896280
  H      2.036450    0.920500   -1.984040
  H      0.921210    1.242140   -2.984230
  O     -0.923410    1.794470   -2.768350
  H     -1.359750    2.338250   -3.430940
  H     -1.303000    0.879480   -2.865760

 Total Charge           Charge          ....    0
 Multiplicity           Mult            ....    1
 Number of Electrons    NEL             ....   70
 Basis Dimension        Dim             ....  301

ORBITAL ENERGIES
----------------

  NO   OCC          E(Eh)            E(eV)
   0   2.0000     -20.607535      -560.7595
   1   2.0000     -20.588306      -560.2363
   2   2.0000     -20.561549      -559.5082
   3   2.0000     -20.549204      -559.1723
   4   2.0000     -20.543785      -559.0248
   5   2.0000     -20.543585      -559.0194
   6   2.0000     -20.507955      -558.0498
   7   2.0000      -1.387977       -37.7688
   8   2.0000      -1.366812       -37.1929
   9   2.0000      -1.355400       -36.8823
  10   2.0000      -1.339684       -36.4547
  11   2.0000      -1.333372       -36.2829
  12   2.0000      -1.319962       -35.9180
  13   2.0000      -1.292983       -35.1839
  14   2.0000      -0.753347       -20.4996
  15   2.0000      -0.733230       -19.9522
  16   2.0000      -0.714057       -19.4305
  17   2.0000      -0.707485       -19.2516
  18   2.0000      -0.706036       -19.2122
  19   2.0000      -0.700372       -19.0581
  20   2.0000      -0.672049       -18.2874
  21   2.0000      -0.633447       -17.2370
  22   2.0000      -0.611941       -16.6518
  23   2.0000      -0.604016       -16.4361
  24   2.0000      -0.587654       -15.9909
  25   2.0000      -0.579494       -15.7688
  26   2.0000      -0.569591       -15.4994
  27   2.0000      -0.544178       -14.8078
  28   2.0000      -0.529758       -14.4155
  29   2.0000      -0.519311       -14.1312
  30   2.0000      -0.504501       -13.7282
  31   2.0000      -0.495790       -13.4911
  32   2.0000      -0.493344       -13.4246
  33   2.0000      -0.487842       -13.2749
  34   2.0000      -0.457823       -12.4580
  35   0.0000       0.099904         2.7185
  36   0.0000       0.114665         3.1202
  37   0.0000       0.143231         3.8975
  38   0.0000       0.167721         4.5639
  39   0.0000       0.188770         5.1367

MULLIKEN ATOMIC CHARGES
-----------------------
   0 O :   -0.697488
   1 H :    0.351521
   2 H :    0.362121
   3 O :   -0.734597
   4 H :    0.373649
   5 H :    0.355512
   6 O :   -0.722594
   7 H :    0.380486
   8 H :    0.350157
   9 O :   -0.755933
  10 H :    0.379260
  11 H :    0.357238
  12 O :   -0.723871
  13 H :    0.348541
  14 H :    0.370070
  15 O :   -0.728190
  16 H :    0.370394
  17 H :    0.341063
  18 O :   -0.716790
  19 H :    0.362789
  20 H :    0.376661
Sum of atomic charges:   -0.0000000

LOEWDIN ATOMIC CHARGES
----------------------
   0 O :   -0.310518
   1 H :    0.163331
   2 H :    0.188273
   3 O :   -0.320718
   4 H :    0.148114
   5 H :    0.138794
   6 O :   -0.310437
   7 H :    0.146461
   8 H :    0.166725
   9 O :   -0.302800
  10 H :    0.151503
  11 H :    0.140384
  12 O :   -0.316375
  13 H :    0.166626
  14 H :    0.145190
  15 O :   -0.356101
  16 H :    0.148710
  17 H :    0.139346
  18 O :   -0.287744
  19 H :    0.167147
  20 H :    0.194088

  Mayer bond orders larger than 0.100000
B(  0-O ,  1-H ) :   0.8425 B(  0-O ,  2-H ) :   0.8290 B(  3-O ,  4-H ) :   0.8137
B(  3-O ,  5-H ) :   0.7746 B(  3-O , 11-H ) :   0.1145 B(  5-H , 12-O ) :   0.1092
B(  6-O ,  7-H ) :   0.7617 B(  6-O ,  8-H ) :   0.8404 B(  6-O , 14-H ) :   0.1207
B(  9-O , 10-H ) :   0.8025 B(  9-O , 11-H ) :   0.7569 B( 12-O , 13-H ) :   0.8435
B( 12-O , 14-H ) :   0.7569 B( 15-O , 16-H ) :   0.8191 B( 15-O , 17-H ) :   0.8365
B( 18-O , 19-H ) :   0.8328 B( 18-O , 20-H ) :   0.8158

MP2 TOTAL ENERGY:     -534.265913907 Eh
FINAL SINGLE POINT ENERGY      -534.265913907057

DIPOLE MOMENT
-------------
                                X             Y             Z
Electronic contribution:      0.14554      -0.07231       0.07886
Nuclear contribution   :     -1.44310       0.93582       0.68611
                        -----------------------------------------
Total Dipole Moment    :     -1.29755       0.86352       0.76496
                        -----------------------------------------
Magnitude (a.u.)       :      1.73622
Magnitude (Debye)      :      4.41313

Rotational constants in cm-1:     0.041519     0.026980     0.024697
Rotational constants in MHz :  1244.703031   808.847984   740.388900

                             ****ORCA TERMINATED NORMALLY****
TOTAL RUN TIME: 0 days 0 hours 2 minutes 6 seconds 502 msec
