                         Program Version 4.2.0 -  RELEASE  -
|  1> # 12h2o.su.etal.mol0,1,4,10
|  2> ! MP2 def2-TZVP EnGrad TightSCF
|  3>
|  4> %pal
|  5>     nprocs 6
|  6> end
|  7>
|  8> %maxcore 8000
|  9>
| 10> %scf
| 11>     ConvForced true
| 12> end
| 13>
| 14> *xyz 0 1
| 15> O   1.794470000   0.923410000   2.768350000
| 16> H   2.338250000   1.359750000   3.430940000
| 17> H   0.879480000   1.303000000   2.865760000
| 18> O  -1.794470000  -0.923410000   2.768350000
| 19> H  -2.338250000  -1.359750000   3.430940000
| 20> H  -0.879480000  -1.303000000   2.865760000
| 21> O  -0.885520000   1.737840000   0.052730000
| 22> H  -1.032320000   2.090180000  -0.841890000
| 23> H  -1.284090000   0.839590000   0.017130000
| 24> O  -0.923410000   1.794470000  -2.768350000
| 25> H  -1.359750000   2.338250000  -3.430940000
| 26> H  -1.303000000   0.879480000  -2.865760000
| 27> *
| 28>
| 29>                          ****END OF INPUT****

CARTESIAN COORDINATES (ANGSTROEM)
---------------------------------
  O      1.794470    0.923410    2.768350
  H      2.338250    1.359750    3.430940
  H      0.879480    1.303000    2.865760
  O     -1.794470   -0.923410    2.768350
  H     -2.338250   -1.359750    3.430940
  H     -0.879480   -1.303000    2.865760
  O     -0.885520    1.737840    0.052730
  H     -1.032320    2.090180   -0.841890
  H     -1.284090    0.839590    0.017130
  O     -0.923410    1.794470   -2.768350
  H     -1.359750    2.338250   -3.430940
  H     -1.303000    0.879480   -2.865760

 Total Charge           Charge          ....    0
 Multiplicity           Mult            ....    1
 Number of Electrons    NEL             ....   40
 Basis Dimension        Dim             ....  172

ORBITAL ENERGIES
----------------

  NO   OCC          E(Eh)            E(eV)
   0   2.0000     -20.585244      -560.1530
   1   2.0000     -20.560585      -559.4820
   2   2.0000     -20.544361      -559.0405
   3   2.0000     -20.519972      -558.3768
   4   2.0000      -1.363020       -37.0897
   5   2.0000      -1.335885       -36.3513
   6   2.0000      -1.319740       -35.9120
   7   2.0000      -1.299002       -35.3477
   8   2.0000      -0.729945       -19.8628
   9   2.0000      -0.704189       -19.1620
  10   2.0000      -0.687600       -18.7105
  11   2.0000      -0.669114       -18.2075
  12   2.0000      -0.598764       -16.2932
  13   2.0000      -0.572150       -15.5690
  14   2.0000      -0.556226       -15.1357
  15   2.0000      -0.550169       -14.9709
  16   2.0000      -0.516340       -14.0503
  17   2.0000      -0.503967       -13.7136
  18   2.0000      -0.487619       -13.2688
  19   2.0000      -0.465449       -12.6655
  20   0.0000       0.108325         2.9477
  21   0.0000       0.122827         3.3423
  22   0.0000       0.154548         4.2055
  23   0.0000       0.175147         4.7660
  24   0.0000       0.203352         5.5335

MULLIKEN ATOMIC CHARGES
-----------------------
   0 O :   -0.690461
   1 H :    0.331462
   2 H :    0.357875
   3 O :   -0.687755
   4 H :    0.337260
   5 H :    0.351737
   6 O :   -0.695410
   7 H :    0.361259
   8 H :    0.323902
   9 O :   -0.687742
  10 H :    0.348533
  11 H :    0.349339
Sum of atomic charges:   -0.0000000

LOEWDIN ATOMIC CHARGES
----------------------
   0 O :   -0.341485
   1 H :    0.154758
   2 H :    0.185150
   3 O :   -0.339677
   4 H :    0.157503
   5 H :    0.183631
   6 O :   -0.347066
   7 H :    0.147254
   8 H :    0.163581
   9 O :   -0.308684
  10 H :    0.161641
  11 H :    0.183395

  Mayer bond orders larger than 0.100000
B(  0-O ,  1-H ) :   0.8567 B(  0-O ,  2-H ) :   0.8326 B(  3-O ,  4-H ) :   0.8533
B(  3-O ,  5-H ) :   0.8374 B(  6-O ,  7-H ) :   0.8242 B(  6-O ,  8-H ) :   0.8561
B(  9-O , 10-H ) :   0.8436 B(  9-O , 11-H ) :   0.8377

MP2 TOTAL ENERGY:     -305.258011086 Eh
FINAL SINGLE POINT ENERGY      -305.258011085736

DIPOLE MOMENT
-------------
                                X             Y             Z
Electronic contribution:      0.18799       0.16745      -0.15857
Nuclear contribution   :     -1.13309      -0.76337      -0.14168
                        -----------------------------------------
Total Dipole Moment    :     -0.94511      -0.59592      -0.30026
                        -----------------------------------------
Magnitude (a.u.)       :      1.15694
Magnitude (Debye)      :      2.94070

Rotational constants in cm-1:     0.104218     0.036131     0.027866
Rotational constants in MHz :  3124.375044  1083.174017   835.391711

                             ****ORCA TERMINATED NORMALLY****
TOTAL RUN TIME: 0 days 0 hours 0 minutes 14 seconds 396 msec
