                         Program Version 3.0.3 - RELEASE   -
|  1> ! B3LYP Def2-SVP def2-SVP/J RIJCOSX TightSCF Grid4 D3BJ OPT
|  2>
|  3> %pal nprocs 12 end
|  4>
|  5> %scf
|  6>         maxiter 400
|  7> end
|  8>
|  9> * xyz  0  1
| 10>   O     -0.133689    0.831864   -1.893552
| 11>   H      0.264842   -0.019058   -1.566702
| 12>   H     -0.946023    0.548471   -2.336965
| 13>   O     -0.717821    1.453147    0.663310
| 14>   H     -0.580457    1.222275   -0.292777
| 15>   H     -0.102222    2.185295    0.804432
| 16>   O      0.741049   -1.385663   -0.674927
| 17>   H      1.688465   -1.576551   -0.676316
| 18>   H      0.516689   -1.283656    0.288658
| 19>   O      0.126502   -0.797403    1.865600
| 20>   H     -0.227891    0.079559    1.554330
| 21>   H     -0.645999   -1.249873    2.232092
| 22> **                         ****END OF INPUT****
 Total Charge           Charge          ....    0
 Multiplicity           Mult            ....    1
 Number of Electrons    NEL             ....   40
Dispersion correction           -0.008099310
FINAL SINGLE POINT ENERGY      -305.363887554792
Dispersion correction            ...
                    ***********************HURRAY********************

CARTESIAN COORDINATES (ANGSTROEM)
---------------------------------
  O     -0.133349    0.831269   -1.892466
  H      0.265026   -0.019382   -1.565621
  H     -0.944759    0.547767   -2.337163
  O     -0.717714    1.453271    0.663083
  H     -0.580494    1.221984   -0.293318
  H     -0.102583    2.185629    0.804098
  O      0.740226   -1.384505   -0.674928
  H      1.687322   -1.576105   -0.677432
  H      0.516139   -1.282790    0.288661
  O      0.126707   -0.797403    1.865767
  H     -0.227525    0.079156    1.554568
  H     -0.645552   -1.250484    2.231934

 Multiplicity           Mult            ....    1
 Number of Electrons    NEL             ....   40
 Basis Dimension        Dim             ....   96

ORBITAL ENERGIES
----------------

  NO   OCC          E(Eh)            E(eV)
   0   2.0000     -19.120878      -520.3055
   1   2.0000     -19.120144      -520.2856
   2   2.0000     -19.119825      -520.2769
   3   2.0000     -19.119701      -520.2735
   4   2.0000      -0.995422       -27.0868
   5   2.0000      -0.978642       -26.6302
   6   2.0000      -0.976296       -26.5664
   7   2.0000      -0.960499       -26.1365
   8   2.0000      -0.524594       -14.2749
   9   2.0000      -0.517107       -14.0712
  10   2.0000      -0.505927       -13.7670
  11   2.0000      -0.505228       -13.7479
  12   2.0000      -0.415503       -11.3064
  13   2.0000      -0.384468       -10.4619
  14   2.0000      -0.375326       -10.2132
  15   2.0000      -0.346827        -9.4376
  16   2.0000      -0.303146        -8.2490
  17   2.0000      -0.300170        -8.1680
  18   2.0000      -0.296508        -8.0684
  19   2.0000      -0.294850        -8.0233
  20   0.0000       0.039646         1.0788
  21   0.0000       0.075904         2.0654
  22   0.0000       0.079755         2.1703
  23   0.0000       0.096823         2.6347
  24   0.0000       0.215168         5.8550

MULLIKEN ATOMIC CHARGES
-----------------------
   0 O :   -0.302962
   1 H :    0.154960
   2 H :    0.163587
   3 O :   -0.311758
   4 H :    0.133389
   5 H :    0.166184
   6 O :   -0.320005
   7 H :    0.166621
   8 H :    0.142373
   9 O :   -0.310082
  10 H :    0.152448
  11 H :    0.165245
Sum of atomic charges:   -0.0000000

LOEWDIN ATOMIC CHARGES
----------------------
   0 O :   -0.115658
   1 H :    0.037210
   2 H :    0.079044
   3 O :   -0.115419
   4 H :    0.034790
   5 H :    0.079992
   6 O :   -0.117867
   7 H :    0.079600
   8 H :    0.036608
   9 O :   -0.116661
  10 H :    0.038870
  11 H :    0.079492

  Mayer bond orders larger than 0.1
B(  0-O ,  1-H ) :   0.8885 B(  0-O ,  2-H ) :   0.9952 B(  0-O ,  4-H ) :   0.2312
B(  1-H ,  6-O ) :   0.2006 B(  3-O ,  4-H ) :   0.8823 B(  3-O ,  5-H ) :   0.9927
B(  3-O , 10-H ) :   0.2080 B(  6-O ,  7-H ) :   0.9911 B(  6-O ,  8-H ) :   0.8807
B(  8-H ,  9-O ) :   0.2222 B(  9-O , 10-H ) :   0.8842 B(  9-O , 11-H ) :   0.9933

Dispersion correction           -0.008102318
FINAL SINGLE POINT ENERGY      -305.363890667554

DIPOLE MOMENT
-------------
                                X             Y             Z
Electronic contribution:      0.02106       0.05460      -0.01463
Nuclear contribution   :     -0.05341      -0.24928       0.06893
                        -----------------------------------------
Total Dipole Moment    :     -0.03235      -0.19468       0.05430
                        -----------------------------------------
Magnitude (a.u.)       :      0.20469
Magnitude (Debye)      :      0.52027

                             ****ORCA TERMINATED NORMALLY****
TOTAL RUN TIME: 0 days 0 hours 1 minutes 40 seconds 234 msec
