                         Program Version 3.0.3 - RELEASE   -
|  1> ! BP86 Def2-SVP TightSCF Opt D3BJ COSMO
|  2>
|  3> %pal nprocs 12 end
|  4>
|  5> %scf
|  6>         maxiter 800
|  7> end
|  8>
|  9> %cosmo
| 10> 	SMD true
| 11>         solvent "WATER"
| 12> end
| 13>
| 14> * xyz  0  1
| 15>   O     -0.180384    0.762615   -1.642601
| 16>   H      0.247167   -0.078166   -1.479749
| 17>   H     -0.796274    0.584951   -2.353479
| 18>   O     -0.605612    1.714052    0.854336
| 19>   H     -0.547640    1.306417   -0.009785
| 20>   H     -0.515656    2.651653    0.683910
| 21>   O      0.929260   -1.634735   -0.959238
| 22>   H      1.871177   -1.804965   -0.952443
| 23>   H      0.665463   -1.708324   -0.042053
| 24>   O     -0.112940   -0.857326    1.807599
| 25>   H     -0.314458    0.015397    1.469996
| 26>   H     -0.656660   -0.943162    2.590691
| 27> **                         ****END OF INPUT****
 Total Charge           Charge          ....    0
 Multiplicity           Mult            ....    1
 Number of Electrons    NEL             ....   40
 Basis Dimension        Dim             ....   96

ORBITAL ENERGIES
----------------

  NO   OCC          E(Eh)            E(eV)
   0   2.0000     -18.775178      -510.8986
   1   2.0000     -18.762135      -510.5436
   2   2.0000     -18.756992      -510.4037
   3   2.0000     -18.754316      -510.3309
   4   2.0000      -0.913991       -24.8710
   5   2.0000      -0.902101       -24.5474
   6   2.0000      -0.895066       -24.3560
   7   2.0000      -0.884904       -24.0794
   8   2.0000      -0.483367       -13.1531
   9   2.0000      -0.472220       -12.8498
  10   2.0000      -0.465593       -12.6694
  11   2.0000      -0.446637       -12.1536
  12   2.0000      -0.361522        -9.8375
  13   2.0000      -0.333714        -9.0808
  14   2.0000      -0.323110        -8.7923
  15   2.0000      -0.297534        -8.0963
  16   2.0000      -0.258869        -7.0442
  17   2.0000      -0.251322        -6.8388
  18   2.0000      -0.246040        -6.6951
  19   2.0000      -0.239127        -6.5070
  20   0.0000       0.032914         0.8956
  21   0.0000       0.075241         2.0474
  22   0.0000       0.080222         2.1829
  23   0.0000       0.103440         2.8147
  24   0.0000       0.163785         4.4568

MULLIKEN ATOMIC CHARGES
-----------------------
   0 O :   -0.313235
   1 H :    0.123820
   2 H :    0.197570
   3 O :   -0.332583
   4 H :    0.111484
   5 H :    0.189840
   6 O :   -0.302370
   7 H :    0.204385
   8 H :    0.154705
   9 O :   -0.339862
  10 H :    0.114608
  11 H :    0.191638
Sum of atomic charges:   -0.0000000

LOEWDIN ATOMIC CHARGES
----------------------
   0 O :   -0.109267
   1 H :    0.018293
   2 H :    0.096437
   3 O :   -0.148748
   4 H :    0.012460
   5 H :    0.094554
   6 O :   -0.095151
   7 H :    0.103172
   8 H :    0.058840
   9 O :   -0.157028
  10 H :    0.032312
  11 H :    0.094126

  Mayer bond orders larger than 0.1
B(  0-O ,  1-H ) :   0.9160 B(  0-O ,  2-H ) :   0.9797 B(  0-O ,  4-H ) :   0.2083
B(  1-H ,  6-O ) :   0.1973 B(  3-O ,  4-H ) :   0.9105 B(  3-O ,  5-H ) :   0.9754
B(  3-O , 10-H ) :   0.1541 B(  6-O ,  7-H ) :   0.9784 B(  6-O ,  8-H ) :   0.9545
B(  8-H ,  9-O ) :   0.1074 B(  9-O , 10-H ) :   0.9470 B(  9-O , 11-H ) :   0.9809

Dispersion correction           -0.006512632
FINAL SINGLE POINT ENERGY      -305.522492233553
Dispersion correction            ...
Dispersion correction           -0.006487966
FINAL SINGLE POINT ENERGY      -305.528450484899
Dispersion correction            ...
Dispersion correction           -0.006637439
FINAL SINGLE POINT ENERGY      -305.530250776346
Dispersion correction            ...
FINAL SINGLE POINT ENERGY      -305.531893682394
FINAL SINGLE POINT ENERGY      -305.533408402403
FINAL SINGLE POINT ENERGY      -305.534782250503
FINAL SINGLE POINT ENERGY      -305.535873654965
FINAL SINGLE POINT ENERGY      -305.536581478898
FINAL SINGLE POINT ENERGY      -305.537188249118
FINAL SINGLE POINT ENERGY      -305.538203032425
FINAL SINGLE POINT ENERGY      -305.546606199904
FINAL SINGLE POINT ENERGY      -305.546673645422
FINAL SINGLE POINT ENERGY      -305.546668304017
FINAL SINGLE POINT ENERGY      -305.546675716240
FINAL SINGLE POINT ENERGY      -305.546619286574
FINAL SINGLE POINT ENERGY      -305.546633831759
FINAL SINGLE POINT ENERGY      -305.546683252129
Dispersion correction           -0.007403919
FINAL SINGLE POINT ENERGY      -305.546573502293
Dispersion correction            ...
Dispersion correction           -0.007396343
FINAL SINGLE POINT ENERGY      -305.546493518224
Dispersion correction            ...

CARTESIAN COORDINATES (ANGSTROEM)
---------------------------------
  O     -0.141510    0.697351   -1.730386
  H      0.243085   -0.190349   -1.416759
  H     -1.005143    0.444081   -2.112640
  O     -0.762004    1.584094    0.692693
  H     -0.533013    1.308087   -0.258163
  H     -0.046820    2.212371    0.917563
  O      0.792888   -1.564492   -0.702053
  H      1.763297   -1.445384   -0.727612
  H      0.554494   -1.307168    0.251543
  O      0.096011   -0.709975    1.716345
  H     -0.261034    0.190180    1.406211
  H     -0.716809   -1.210389    1.930442

Dispersion correction           -0.007394480
FINAL SINGLE POINT ENERGY      -305.546499523304
Dispersion correction            ...

DIPOLE MOMENT
-------------
                                X             Y             Z
Electronic contribution:     -0.00761      -0.00334      -0.00577
Nuclear contribution   :      0.01954      -0.01038       0.02667
                        -----------------------------------------
Total Dipole Moment    :      0.01193      -0.01372       0.02090
                        -----------------------------------------
Magnitude (a.u.)       :      0.02770
Magnitude (Debye)      :      0.07041

                             ****ORCA TERMINATED NORMALLY****
TOTAL RUN TIME: 0 days 0 hours 55 minutes 34 seconds 75 msec
