                         Program Version 3.0.3 - RELEASE   -
|  1> ! B3LYP Def2-SVP def2-SVP/J RIJCOSX TightSCF Grid4 D3BJ COSMO OPT
|  2>
|  3> %pal nprocs 12 end
|  4>
|  5> %scf
|  6>         maxiter 800
|  7> end
|  8>
|  9> %cosmo
| 10>         SMD true
| 11>         solvent "WATER"
| 12> end
| 13>
| 14> * xyz  0  1
| 15>   O     -0.200624    0.720472   -1.854273
| 16>   H      0.202306   -0.120329   -1.506646
| 17>   H     -1.060849    0.438528   -2.202413
| 18>   O     -0.670845    1.564622    0.662702
| 19>   H     -0.520505    1.315662   -0.287928
| 20>   H      0.052882    2.180740    0.855333
| 21>   O      0.822279   -1.463859   -0.668085
| 22>   H      1.784654   -1.349461   -0.632069
| 23>   H      0.529747   -1.290836    0.265471
| 24>   O      0.061523   -0.797146    1.827471
| 25>   H     -0.253743    0.089015    1.507777
| 26>   H     -0.763382   -1.279001    1.999844
| 27> **                         ****END OF INPUT****
 Total Charge           Charge          ....    0
 Multiplicity           Mult            ....    1
 Number of Electrons    NEL             ....   40
Dispersion correction           -0.008162793
FINAL SINGLE POINT ENERGY      -305.392781350486
Dispersion correction            ...
Dispersion correction           -0.008161390
FINAL SINGLE POINT ENERGY      -305.386969279005
Dispersion correction            ...
Dispersion correction           -0.008163794
FINAL SINGLE POINT ENERGY      -305.386935754385
Dispersion correction            ...
FINAL SINGLE POINT ENERGY      -305.386880946758
FINAL SINGLE POINT ENERGY      -305.386895662030
FINAL SINGLE POINT ENERGY      -305.386902597394
FINAL SINGLE POINT ENERGY      -305.392755004001
FINAL SINGLE POINT ENERGY      -305.386937599779
FINAL SINGLE POINT ENERGY      -305.386963127203
FINAL SINGLE POINT ENERGY      -305.386985255496
Dispersion correction            ...
Dispersion correction           -0.008167568
FINAL SINGLE POINT ENERGY      -305.387008256847
Dispersion correction            ...
Dispersion correction           -0.008168785
FINAL SINGLE POINT ENERGY      -305.387020648509
Dispersion correction            ...
                    ***********************HURRAY********************

CARTESIAN COORDINATES (ANGSTROEM)
---------------------------------
  O     -0.199050    0.711236   -1.840163
  H      0.206244   -0.132999   -1.502754
  H     -1.072092    0.434878   -2.160883
  O     -0.672001    1.573688    0.669279
  H     -0.526608    1.329953   -0.283268
  H      0.052843    2.188340    0.861395
  O      0.838456   -1.484920   -0.673793
  H      1.797433   -1.347180   -0.633139
  H      0.537390   -1.308383    0.257353
  O      0.051691   -0.788408    1.808654
  H     -0.256343    0.099932    1.484041
  H     -0.774520   -1.267731    1.980460

 Multiplicity           Mult            ....    1
 Number of Electrons    NEL             ....   40
 Basis Dimension        Dim             ....   96

ORBITAL ENERGIES
----------------

  NO   OCC          E(Eh)            E(eV)
   0   2.0000     -19.123339      -520.3725
   1   2.0000     -19.122021      -520.3366
   2   2.0000     -19.121863      -520.3323
   3   2.0000     -19.121190      -520.3140
   4   2.0000      -0.995385       -27.0858
   5   2.0000      -0.978533       -26.6272
   6   2.0000      -0.976382       -26.5687
   7   2.0000      -0.960110       -26.1259
   8   2.0000      -0.516100       -14.0438
   9   2.0000      -0.511573       -13.9206
  10   2.0000      -0.507449       -13.8084
  11   2.0000      -0.506346       -13.7784
  12   2.0000      -0.414897       -11.2899
  13   2.0000      -0.386202       -10.5091
  14   2.0000      -0.382856       -10.4180
  15   2.0000      -0.361126        -9.8267
  16   2.0000      -0.305768        -8.3204
  17   2.0000      -0.305440        -8.3114
  18   2.0000      -0.303370        -8.2551
  19   2.0000      -0.298741        -8.1292
  20   0.0000       0.051450         1.4000
  21   0.0000       0.097626         2.6565
  22   0.0000       0.100363         2.7310
  23   0.0000       0.116659         3.1744
  24   0.0000       0.220425         5.9981

MULLIKEN ATOMIC CHARGES
-----------------------
   0 O :   -0.356058
   1 H :    0.152957
   2 H :    0.207471
   3 O :   -0.357548
   4 H :    0.143815
   5 H :    0.206487
   6 O :   -0.355462
   7 H :    0.206262
   8 H :    0.145232
   9 O :   -0.353019
  10 H :    0.151410
  11 H :    0.208453
Sum of atomic charges:   -0.0000000

LOEWDIN ATOMIC CHARGES
----------------------
   0 O :   -0.142357
   1 H :    0.037726
   2 H :    0.103606
   3 O :   -0.143298
   4 H :    0.035771
   5 H :    0.102591
   6 O :   -0.138466
   7 H :    0.102863
   8 H :    0.036825
   9 O :   -0.140526
  10 H :    0.040554
  11 H :    0.104711

  Mayer bond orders larger than 0.1
B(  0-O ,  1-H ) :   0.8813 B(  0-O ,  2-H ) :   0.9746 B(  0-O ,  4-H ) :   0.2250
B(  1-H ,  6-O ) :   0.2169 B(  3-O ,  4-H ) :   0.8812 B(  3-O ,  5-H ) :   0.9744
B(  3-O , 10-H ) :   0.2132 B(  6-O ,  7-H ) :   0.9749 B(  6-O ,  8-H ) :   0.8807
B(  8-H ,  9-O ) :   0.2248 B(  9-O , 10-H ) :   0.8847 B(  9-O , 11-H ) :   0.9742

Dispersion correction           -0.008169907
FINAL SINGLE POINT ENERGY      -305.387026009349

DIPOLE MOMENT
-------------
                                X             Y             Z
Electronic contribution:      0.00985      -0.01468       0.00574
Nuclear contribution   :     -0.06147      -0.02196       0.06264
                        -----------------------------------------
Total Dipole Moment    :     -0.05162      -0.03664       0.06838
                        -----------------------------------------
Magnitude (a.u.)       :      0.09318
Magnitude (Debye)      :      0.23685

                             ****ORCA TERMINATED NORMALLY****
TOTAL RUN TIME: 0 days 0 hours 10 minutes 56 seconds 621 msec
