                         Program Version 3.0.3 - RELEASE   -
|  1> ! BP86 Def2-SVP TightSCF Opt D3BJ COSMO
|  2>
|  3> %pal nprocs 12 end
|  4>
|  5> %scf
|  6>         maxiter 800
|  7> end
|  8>
|  9> %cosmo
| 10> 	SMD true
| 11>         solvent "WATER"
| 12> end
| 13>
| 14> * xyz  0  1
| 15>   O     -0.141510    0.697351   -1.730386
| 16>   H      0.243085   -0.190349   -1.416759
| 17>   H     -1.005143    0.444081   -2.112640
| 18>   O     -0.762004    1.584094    0.692693
| 19>   H     -0.533013    1.308087   -0.258163
| 20>   H     -0.046820    2.212371    0.917563
| 21>   O      0.792888   -1.564492   -0.702053
| 22>   H      1.763297   -1.445384   -0.727612
| 23>   H      0.554494   -1.307168    0.251543
| 24>   O      0.096011   -0.709975    1.716345
| 25>   H     -0.261034    0.190180    1.406211
| 26>   H     -0.716809   -1.210389    1.930442
| 27> **                         ****END OF INPUT****
 Total Charge           Charge          ....    0
 Multiplicity           Mult            ....    1
 Number of Electrons    NEL             ....   40
Dispersion correction           -0.007394480
FINAL SINGLE POINT ENERGY      -305.546499518197
Dispersion correction            ...
                    ***********************HURRAY********************

CARTESIAN COORDINATES (ANGSTROEM)
---------------------------------
  O     -0.141248    0.697631   -1.730432
  H      0.242814   -0.189673   -1.416835
  H     -1.005119    0.443947   -2.112489
  O     -0.762131    1.584050    0.692328
  H     -0.532969    1.308254   -0.258852
  H     -0.047081    2.212817    0.917375
  O      0.792236   -1.564224   -0.701763
  H      1.763203   -1.445515   -0.726941
  H      0.554182   -1.307118    0.251915
  O      0.096569   -0.710534    1.716314
  H     -0.260506    0.189212    1.406428
  H     -0.716508   -1.210441    1.930137

 Multiplicity           Mult            ....    1
 Number of Electrons    NEL             ....   40
 Basis Dimension        Dim             ....   96

ORBITAL ENERGIES
----------------

  NO   OCC          E(Eh)            E(eV)
   0   2.0000     -18.768545      -510.7181
   1   2.0000     -18.768512      -510.7172
   2   2.0000     -18.768220      -510.7092
   3   2.0000     -18.767818      -510.6983
   4   2.0000      -0.910859       -24.7857
   5   2.0000      -0.891129       -24.2488
   6   2.0000      -0.890880       -24.2421
   7   2.0000      -0.871544       -23.7159
   8   2.0000      -0.462899       -12.5961
   9   2.0000      -0.454920       -12.3790
  10   2.0000      -0.454362       -12.3638
  11   2.0000      -0.453149       -12.3308
  12   2.0000      -0.367364        -9.9965
  13   2.0000      -0.335283        -9.1235
  14   2.0000      -0.333889        -9.0856
  15   2.0000      -0.308850        -8.4042
  16   2.0000      -0.255372        -6.9490
  17   2.0000      -0.254973        -6.9382
  18   2.0000      -0.254573        -6.9273
  19   2.0000      -0.247902        -6.7458
  20   0.0000       0.033897         0.9224
  21   0.0000       0.078284         2.1302
  22   0.0000       0.078613         2.1392
  23   0.0000       0.098783         2.6880
  24   0.0000       0.192166         5.2291

MULLIKEN ATOMIC CHARGES
-----------------------
   0 O :   -0.356951
   1 H :    0.146047
   2 H :    0.212025
   3 O :   -0.355748
   4 H :    0.144397
   5 H :    0.210442
   6 O :   -0.354588
   7 H :    0.210802
   8 H :    0.143536
   9 O :   -0.357956
  10 H :    0.145737
  11 H :    0.212256
Sum of atomic charges:   -0.0000000

LOEWDIN ATOMIC CHARGES
----------------------
   0 O :   -0.137386
   1 H :    0.032825
   2 H :    0.106148
   3 O :   -0.138982
   4 H :    0.031488
   5 H :    0.105590
   6 O :   -0.137667
   7 H :    0.105756
   8 H :    0.031679
   9 O :   -0.138735
  10 H :    0.033037
  11 H :    0.106248

  Mayer bond orders larger than 0.1
B(  0-O ,  1-H ) :   0.8473 B(  0-O ,  2-H ) :   0.9724 B(  0-O ,  4-H ) :   0.2580
B(  1-H ,  6-O ) :   0.2571 B(  3-O ,  4-H ) :   0.8476 B(  3-O ,  5-H ) :   0.9730
B(  3-O , 10-H ) :   0.2578 B(  6-O ,  7-H ) :   0.9733 B(  6-O ,  8-H ) :   0.8482
B(  8-H ,  9-O ) :   0.2577 B(  9-O , 10-H ) :   0.8466 B(  9-O , 11-H ) :   0.9718

Dispersion correction           -0.007394860
FINAL SINGLE POINT ENERGY      -305.546500300011

DIPOLE MOMENT
-------------
                                X             Y             Z
Electronic contribution:     -0.00952      -0.00481      -0.00794
Nuclear contribution   :      0.02261      -0.01029       0.03150
                        -----------------------------------------
Total Dipole Moment    :      0.01310      -0.01510       0.02356
                        -----------------------------------------
Magnitude (a.u.)       :      0.03090
Magnitude (Debye)      :      0.07853

                             ****ORCA TERMINATED NORMALLY****
TOTAL RUN TIME: 0 days 0 hours 1 minutes 38 seconds 831 msec
