                         Program Version 4.2.0 -  RELEASE  -
|  1> # 12h2o.su.etal.mol0,3,4,5,6
|  2> ! MP2 def2-TZVP EnGrad TightSCF
|  3>
|  4> %pal
|  5>     nprocs 6
|  6> end
|  7>
|  8> %maxcore 8000
|  9>
| 10> %scf
| 11>     ConvForced true
| 12> end
| 13>
| 14> *xyz 0 1
| 15> O   1.794470000   0.923410000   2.768350000
| 16> H   2.338250000   1.359750000   3.430940000
| 17> H   0.879480000   1.303000000   2.865760000
| 18> O  -1.752130000  -0.741530000  -2.896280000
| 19> H  -2.036450000  -0.920500000  -1.984040000
| 20> H  -0.921210000  -1.242140000  -2.984230000
| 21> O  -0.885520000   1.737840000   0.052730000
| 22> H  -1.032320000   2.090180000  -0.841890000
| 23> H  -1.284090000   0.839590000   0.017130000
| 24> O   0.885520000  -1.737840000   0.052730000
| 25> H   1.284090000  -0.839590000   0.017130000
| 26> H   1.032320000  -2.090180000  -0.841890000
| 27> O   1.737840000   0.885520000  -0.052730000
| 28> H   2.090180000   1.032320000   0.841890000
| 29> H   0.839590000   1.284090000  -0.017130000
| 30> *
| 31>
| 32>                          ****END OF INPUT****

CARTESIAN COORDINATES (ANGSTROEM)
---------------------------------
  O      1.794470    0.923410    2.768350
  H      2.338250    1.359750    3.430940
  H      0.879480    1.303000    2.865760
  O     -1.752130   -0.741530   -2.896280
  H     -2.036450   -0.920500   -1.984040
  H     -0.921210   -1.242140   -2.984230
  O     -0.885520    1.737840    0.052730
  H     -1.032320    2.090180   -0.841890
  H     -1.284090    0.839590    0.017130
  O      0.885520   -1.737840    0.052730
  H      1.284090   -0.839590    0.017130
  H      1.032320   -2.090180   -0.841890
  O      1.737840    0.885520   -0.052730
  H      2.090180    1.032320    0.841890
  H      0.839590    1.284090   -0.017130

 Total Charge           Charge          ....    0
 Multiplicity           Mult            ....    1
 Number of Electrons    NEL             ....   50
 Basis Dimension        Dim             ....  215

ORBITAL ENERGIES
----------------

  NO   OCC          E(Eh)            E(eV)
   0   2.0000     -20.600804      -560.5764
   1   2.0000     -20.585854      -560.1696
   2   2.0000     -20.574025      -559.8477
   3   2.0000     -20.533825      -558.7538
   4   2.0000     -20.524891      -558.5107
   5   2.0000      -1.381620       -37.5958
   6   2.0000      -1.363867       -37.1127
   7   2.0000      -1.352951       -36.8157
   8   2.0000      -1.324605       -36.0443
   9   2.0000      -1.303215       -35.4623
  10   2.0000      -0.739417       -20.1206
  11   2.0000      -0.730535       -19.8789
  12   2.0000      -0.715958       -19.4822
  13   2.0000      -0.698820       -19.0159
  14   2.0000      -0.677699       -18.4411
  15   2.0000      -0.625352       -17.0167
  16   2.0000      -0.604504       -16.4494
  17   2.0000      -0.590527       -16.0690
  18   2.0000      -0.575528       -15.6609
  19   2.0000      -0.552533       -15.0352
  20   2.0000      -0.531784       -14.4706
  21   2.0000      -0.519260       -14.1298
  22   2.0000      -0.517800       -14.0901
  23   2.0000      -0.480457       -13.0739
  24   2.0000      -0.471989       -12.8435
  25   0.0000       0.086998         2.3673
  26   0.0000       0.117248         3.1905
  27   0.0000       0.139043         3.7835
  28   0.0000       0.167617         4.5611
  29   0.0000       0.186085         5.0636

MULLIKEN ATOMIC CHARGES
-----------------------
   0 O :   -0.692669
   1 H :    0.349658
   2 H :    0.357705
   3 O :   -0.673569
   4 H :    0.332408
   5 H :    0.341369
   6 O :   -0.690195
   7 H :    0.366544
   8 H :    0.356437
   9 O :   -0.721227
  10 H :    0.363889
  11 H :    0.312777
  12 O :   -0.728138
  13 H :    0.375062
  14 H :    0.349950
Sum of atomic charges:   -0.0000000

LOEWDIN ATOMIC CHARGES
----------------------
   0 O :   -0.308839
   1 H :    0.162435
   2 H :    0.186484
   3 O :   -0.328601
   4 H :    0.160804
   5 H :    0.167778
   6 O :   -0.290650
   7 H :    0.176850
   8 H :    0.176896
   9 O :   -0.364706
  10 H :    0.142375
  11 H :    0.149818
  12 O :   -0.318156
  13 H :    0.149544
  14 H :    0.137969

  Mayer bond orders larger than 0.100000
B(  0-O ,  1-H ) :   0.8432 B(  0-O ,  2-H ) :   0.8323 B(  3-O ,  4-H ) :   0.8536
B(  3-O ,  5-H ) :   0.8490 B(  6-O ,  7-H ) :   0.8318 B(  6-O ,  8-H ) :   0.8314
B(  9-O , 10-H ) :   0.7772 B(  9-O , 11-H ) :   0.8652 B( 10-H , 12-O ) :   0.1041
B( 12-O , 13-H ) :   0.8095 B( 12-O , 14-H ) :   0.7965

MP2 TOTAL ENERGY:     -381.593247529 Eh
FINAL SINGLE POINT ENERGY      -381.593247528846

DIPOLE MOMENT
-------------
                                X             Y             Z
Electronic contribution:     -0.04946       0.26530       0.11675
Nuclear contribution   :     -0.30841       0.56744       0.54442
                        -----------------------------------------
Total Dipole Moment    :     -0.35787       0.83274       0.66118
                        -----------------------------------------
Magnitude (a.u.)       :      1.12191
Magnitude (Debye)      :      2.85167

Rotational constants in cm-1:     0.096523     0.034756     0.028737
Rotational constants in MHz :  2893.682152  1041.947872   861.509144

                             ****ORCA TERMINATED NORMALLY****
TOTAL RUN TIME: 0 days 0 hours 0 minutes 32 seconds 369 msec
