                         Program Version 4.2.0 -  RELEASE  -
|  1> # 12meoh.boyd.etal.mol0,1,10
|  2> ! MP2 def2-TZVP EnGrad TightSCF
|  3>
|  4> %pal
|  5>     nprocs 6
|  6> end
|  7>
|  8> %maxcore 8000
|  9>
| 10> %scf
| 11>     ConvForced true
| 12> end
| 13>
| 14> *xyz 0 1
| 15> O  -1.776108874  -2.741384797  -1.019308298
| 16> H  -2.520094035  -2.452295987  -0.420778302
| 17> C  -2.174025166  -3.952700964  -1.647004581
| 18> H  -1.359803895  -4.272673416  -2.304149236
| 19> H  -3.075973971  -3.808692420  -2.256751112
| 20> H  -2.370225393  -4.752784761  -0.918966137
| 21> O   0.666045193  -2.600503172   0.138317521
| 22> H  -0.227115049  -2.712051982  -0.281868004
| 23> C   0.490021232  -1.851247678   1.341189459
| 24> H   1.466500502  -1.466176022   1.645844415
| 25> H   0.097564527  -2.488364683   2.146902740
| 26> H  -0.187588112  -1.000787499   1.200739571
| 27> O  -5.201143618   0.064582726  -0.172223772
| 28> H  -4.686891530   0.869258890   0.107806143
| 29> C  -6.513192168   0.171391798   0.359883449
| 30> H  -7.049381312  -0.749234190   0.111361174
| 31> H  -7.057741163   1.017801101  -0.081819420
| 32> H  -6.514770575   0.292264928   1.453058834
| 33> *
| 34>
| 35>                          ****END OF INPUT****

CARTESIAN COORDINATES (ANGSTROEM)
---------------------------------
  O     -1.776109   -2.741385   -1.019308
  H     -2.520094   -2.452296   -0.420778
  C     -2.174025   -3.952701   -1.647005
  H     -1.359804   -4.272673   -2.304149
  H     -3.075974   -3.808692   -2.256751
  H     -2.370225   -4.752785   -0.918966
  O      0.666045   -2.600503    0.138318
  H     -0.227115   -2.712052   -0.281868
  C      0.490021   -1.851248    1.341189
  H      1.466501   -1.466176    1.645844
  H      0.097565   -2.488365    2.146903
  H     -0.187588   -1.000787    1.200740
  O     -5.201144    0.064583   -0.172224
  H     -4.686892    0.869259    0.107806
  C     -6.513192    0.171392    0.359883
  H     -7.049381   -0.749234    0.111361
  H     -7.057741    1.017801   -0.081819
  H     -6.514771    0.292265    1.453059

 Total Charge           Charge          ....    0
 Multiplicity           Mult            ....    1
 Number of Electrons    NEL             ....   54
 Basis Dimension        Dim             ....  258

ORBITAL ENERGIES
----------------

  NO   OCC          E(Eh)            E(eV)
   0   2.0000     -20.582047      -560.0660
   1   2.0000     -20.569030      -559.7118
   2   2.0000     -20.510398      -558.1163
   3   2.0000     -11.282951      -307.0247
   4   2.0000     -11.280631      -306.9616
   5   2.0000     -11.248770      -306.0946
   6   2.0000      -1.374882       -37.4124
   7   2.0000      -1.358883       -36.9771
   8   2.0000      -1.305987       -35.5377
   9   2.0000      -0.934097       -25.4181
  10   2.0000      -0.928826       -25.2746
  11   2.0000      -0.895001       -24.3542
  12   2.0000      -0.707718       -19.2580
  13   2.0000      -0.692953       -18.8562
  14   2.0000      -0.666977       -18.1494
  15   2.0000      -0.628580       -17.1045
  16   2.0000      -0.626713       -17.0537
  17   2.0000      -0.603684       -16.4271
  18   2.0000      -0.602150       -16.3853
  19   2.0000      -0.588831       -16.0229
  20   2.0000      -0.558456       -15.1964
  21   2.0000      -0.521019       -14.1777
  22   2.0000      -0.510415       -13.8891
  23   2.0000      -0.480455       -13.0739
  24   2.0000      -0.459228       -12.4962
  25   2.0000      -0.454214       -12.3598
  26   2.0000      -0.414259       -11.2726
  27   0.0000       0.111338         3.0297
  28   0.0000       0.137879         3.7519
  29   0.0000       0.159390         4.3372
  30   0.0000       0.173114         4.7107
  31   0.0000       0.185036         5.0351

MULLIKEN ATOMIC CHARGES
-----------------------
   0 O :   -0.521375
   1 H :    0.345588
   2 C :   -0.183893
   3 H :    0.145582
   4 H :    0.126500
   5 H :    0.121262
   6 O :   -0.528744
   7 H :    0.355917
   8 C :   -0.176611
   9 H :    0.121678
  10 H :    0.095713
  11 H :    0.095884
  12 O :   -0.504425
  13 H :    0.326441
  14 C :   -0.173413
  15 H :    0.128574
  16 H :    0.113337
  17 H :    0.111986
Sum of atomic charges:    0.0000000

LOEWDIN ATOMIC CHARGES
----------------------
   0 O :   -0.077337
   1 H :    0.202687
   2 C :   -0.374450
   3 H :    0.116392
   4 H :    0.104303
   5 H :    0.100413
   6 O :   -0.126176
   7 H :    0.160617
   8 C :   -0.393421
   9 H :    0.105119
  10 H :    0.090084
  11 H :    0.090082
  12 O :   -0.111121
  13 H :    0.192857
  14 C :   -0.383645
  15 H :    0.110265
  16 H :    0.097031
  17 H :    0.096299

  Mayer bond orders larger than 0.100000
B(  0-O ,  1-H ) :   0.8226 B(  0-O ,  2-C ) :   0.8773 B(  2-C ,  3-H ) :   0.9391
B(  2-C ,  4-H ) :   0.9338 B(  2-C ,  5-H ) :   0.9380 B(  6-O ,  7-H ) :   0.7921
B(  6-O ,  8-C ) :   0.9481 B(  8-C ,  9-H ) :   0.9426 B(  8-C , 10-H ) :   0.9364
B(  8-C , 11-H ) :   0.9407 B( 12-O , 13-H ) :   0.8391 B( 12-O , 14-C ) :   0.9200
B( 14-C , 15-H ) :   0.9379 B( 14-C , 16-H ) :   0.9385 B( 14-C , 17-H ) :   0.9383

MP2 TOTAL ENERGY:     -346.530405410 Eh
FINAL SINGLE POINT ENERGY      -346.530405410169

DIPOLE MOMENT
-------------
                                X             Y             Z
Electronic contribution:      2.28444       0.21714      -1.76262
Nuclear contribution   :     -4.09104       0.16195       2.21833
                        -----------------------------------------
Total Dipole Moment    :     -1.80660       0.37909       0.45570
                        -----------------------------------------
Magnitude (a.u.)       :      1.90136
Magnitude (Debye)      :      4.83288

Rotational constants in cm-1:     0.088023     0.020465     0.017027
Rotational constants in MHz :  2638.856431   613.528319   510.469801

                             ****ORCA TERMINATED NORMALLY****
TOTAL RUN TIME: 0 days 0 hours 1 minutes 5 seconds 499 msec
