                         Program Version 4.2.0 -  RELEASE  -
|  1> # 12meoh.boyd.etal.mol0,1,6
|  2> ! MP2 def2-TZVP EnGrad TightSCF
|  3>
|  4> %pal
|  5>     nprocs 6
|  6> end
|  7>
|  8> %maxcore 8000
|  9>
| 10> %scf
| 11>     ConvForced true
| 12> end
| 13>
| 14> *xyz 0 1
| 15> O  -1.776108874  -2.741384797  -1.019308298
| 16> H  -2.520094035  -2.452295987  -0.420778302
| 17> C  -2.174025166  -3.952700964  -1.647004581
| 18> H  -1.359803895  -4.272673416  -2.304149236
| 19> H  -3.075973971  -3.808692420  -2.256751112
| 20> H  -2.370225393  -4.752784761  -0.918966137
| 21> O   0.666045193  -2.600503172   0.138317521
| 22> H  -0.227115049  -2.712051982  -0.281868004
| 23> C   0.490021232  -1.851247678   1.341189459
| 24> H   1.466500502  -1.466176022   1.645844415
| 25> H   0.097564527  -2.488364683   2.146902740
| 26> H  -0.187588112  -1.000787499   1.200739571
| 27> O   2.622209273  -1.703002590  -1.445859723
| 28> H   1.828551432  -1.986513781  -0.909754968
| 29> C   2.781117675  -2.615822239  -2.525472890
| 30> H   3.691063626  -2.339003544  -3.065143454
| 31> H   1.934727323  -2.559520367  -3.223226661
| 32> H   2.879948338  -3.653846211  -2.177750170
| 33> *
| 34>
| 35>                          ****END OF INPUT****

CARTESIAN COORDINATES (ANGSTROEM)
---------------------------------
  O     -1.776109   -2.741385   -1.019308
  H     -2.520094   -2.452296   -0.420778
  C     -2.174025   -3.952701   -1.647005
  H     -1.359804   -4.272673   -2.304149
  H     -3.075974   -3.808692   -2.256751
  H     -2.370225   -4.752785   -0.918966
  O      0.666045   -2.600503    0.138318
  H     -0.227115   -2.712052   -0.281868
  C      0.490021   -1.851248    1.341189
  H      1.466501   -1.466176    1.645844
  H      0.097565   -2.488365    2.146903
  H     -0.187588   -1.000787    1.200740
  O      2.622209   -1.703003   -1.445860
  H      1.828551   -1.986514   -0.909755
  C      2.781118   -2.615822   -2.525473
  H      3.691064   -2.339004   -3.065143
  H      1.934727   -2.559520   -3.223227
  H      2.879948   -3.653846   -2.177750

 Total Charge           Charge          ....    0
 Multiplicity           Mult            ....    1
 Number of Electrons    NEL             ....   54
 Basis Dimension        Dim             ....  258

ORBITAL ENERGIES
----------------

  NO   OCC          E(Eh)            E(eV)
   0   2.0000     -20.602486      -560.6222
   1   2.0000     -20.548036      -559.1405
   2   2.0000     -20.498268      -557.7862
   3   2.0000     -11.299076      -307.4635
   4   2.0000     -11.270097      -306.6749
   5   2.0000     -11.238626      -305.8186
   6   2.0000      -1.395293       -37.9678
   7   2.0000      -1.347591       -36.6698
   8   2.0000      -1.294466       -35.2242
   9   2.0000      -0.951105       -25.8809
  10   2.0000      -0.920169       -25.0391
  11   2.0000      -0.884195       -24.0602
  12   2.0000      -0.729162       -19.8415
  13   2.0000      -0.698810       -19.0156
  14   2.0000      -0.655419       -17.8349
  15   2.0000      -0.647203       -17.6113
  16   2.0000      -0.623226       -16.9589
  17   2.0000      -0.610913       -16.6238
  18   2.0000      -0.584459       -15.9039
  19   2.0000      -0.578331       -15.7372
  20   2.0000      -0.548527       -14.9262
  21   2.0000      -0.540251       -14.7010
  22   2.0000      -0.506431       -13.7807
  23   2.0000      -0.482411       -13.1271
  24   2.0000      -0.464038       -12.6271
  25   2.0000      -0.434879       -11.8337
  26   2.0000      -0.402751       -10.9594
  27   0.0000       0.104339         2.8392
  28   0.0000       0.142748         3.8844
  29   0.0000       0.167735         4.5643
  30   0.0000       0.172569         4.6958
  31   0.0000       0.205613         5.5950

MULLIKEN ATOMIC CHARGES
-----------------------
   0 O :   -0.522727
   1 H :    0.343975
   2 C :   -0.186881
   3 H :    0.149838
   4 H :    0.129024
   5 H :    0.127731
   6 O :   -0.546461
   7 H :    0.373131
   8 C :   -0.191664
   9 H :    0.146613
  10 H :    0.113071
  11 H :    0.112446
  12 O :   -0.536654
  13 H :    0.348959
  14 C :   -0.163294
  15 H :    0.117147
  16 H :    0.088085
  17 H :    0.097660
Sum of atomic charges:    0.0000000

LOEWDIN ATOMIC CHARGES
----------------------
   0 O :   -0.077688
   1 H :    0.202616
   2 C :   -0.372414
   3 H :    0.117901
   4 H :    0.105579
   5 H :    0.102296
   6 O :   -0.088370
   7 H :    0.165587
   8 C :   -0.381144
   9 H :    0.114472
  10 H :    0.098776
  11 H :    0.097023
  12 O :   -0.129172
  13 H :    0.160603
  14 C :   -0.398671
  15 H :    0.103887
  16 H :    0.087658
  17 H :    0.091060

  Mayer bond orders larger than 0.100000
B(  0-O ,  1-H ) :   0.8260 B(  0-O ,  2-C ) :   0.8690 B(  2-C ,  3-H ) :   0.9381
B(  2-C ,  4-H ) :   0.9336 B(  2-C ,  5-H ) :   0.9379 B(  6-O ,  7-H ) :   0.7648
B(  6-O ,  8-C ) :   0.8923 B(  6-O , 13-H ) :   0.1035 B(  8-C ,  9-H ) :   0.9416
B(  8-C , 10-H ) :   0.9350 B(  8-C , 11-H ) :   0.9408 B( 12-O , 13-H ) :   0.7781
B( 12-O , 14-C ) :   0.9526 B( 14-C , 15-H ) :   0.9420 B( 14-C , 16-H ) :   0.9409
B( 14-C , 17-H ) :   0.9371

MP2 TOTAL ENERGY:     -346.540200089 Eh
FINAL SINGLE POINT ENERGY      -346.540200089341

DIPOLE MOMENT
-------------
                                X             Y             Z
Electronic contribution:      0.31673       1.64934       0.67090
Nuclear contribution   :     -2.60317      -2.41328      -0.31832
                        -----------------------------------------
Total Dipole Moment    :     -2.28644      -0.76393       0.35258
                        -----------------------------------------
Magnitude (a.u.)       :      2.43633
Magnitude (Debye)      :      6.19267

Rotational constants in cm-1:     0.091278     0.041746     0.030288
Rotational constants in MHz :  2736.459334  1251.523449   908.023333

                             ****ORCA TERMINATED NORMALLY****
TOTAL RUN TIME: 0 days 0 hours 1 minutes 25 seconds 388 msec
