                         Program Version 4.2.0 -  RELEASE  -
|  1> ! MP2 def2-TZVP EnGrad TightSCF FrozenCore
|  2>
|  3> %pal
|  4>     nprocs 8
|  5> end
|  6>
|  7> %maxcore 8000
|  8>
|  9> %scf
| 10>     ConvForced true
| 11> end
| 12>
| 13> *xyz 0 1
| 14> O  -0.004202283   0.081625942   2.104272124
| 15> H   0.801497717  -0.057574058   1.577572124
| 16> H  -0.217302283   1.005025942   1.896072124
| 17> O   1.743697717   0.112225942  -0.276727876
| 18> H   1.325097717  -0.627774058  -0.784227876
| 19> H   2.660697717   0.142925942  -0.575127876
| 20> O  -1.755102283  -0.516574058  -0.107127876
| 21> H  -1.315402283  -0.531774058   0.766572124
| 22> H  -1.650302283   0.419325942  -0.350327876
| 23> O  -0.305402283   2.024025942  -0.139127876
| 24> H  -0.221002283   2.875225942  -0.585527876
| 25> H   0.515997717   1.534325942  -0.349327876
| 26> O   0.223697717  -1.745674058  -1.531927876
| 27> H  -0.597702283  -1.382574058  -1.116227876
| 28> H   0.243197717  -2.672774058  -1.263027876
| 29> *
| 30>
| 31>
| 32>                          ****END OF INPUT****

CARTESIAN COORDINATES (ANGSTROEM)
---------------------------------
  O     -0.004202    0.081626    2.104272
  H      0.801498   -0.057574    1.577572
  H     -0.217302    1.005026    1.896072
  O      1.743698    0.112226   -0.276728
  H      1.325098   -0.627774   -0.784228
  H      2.660698    0.142926   -0.575128
  O     -1.755102   -0.516574   -0.107128
  H     -1.315402   -0.531774    0.766572
  H     -1.650302    0.419326   -0.350328
  O     -0.305402    2.024026   -0.139128
  H     -0.221002    2.875226   -0.585528
  H      0.515998    1.534326   -0.349328
  O      0.223698   -1.745674   -1.531928
  H     -0.597702   -1.382574   -1.116228
  H      0.243198   -2.672774   -1.263028

 Total Charge           Charge          ....    0
 Multiplicity           Mult            ....    1
 Number of Electrons    NEL             ....   50
 Basis Dimension        Dim             ....  215

ORBITAL ENERGIES
----------------

  NO   OCC          E(Eh)            E(eV)
   0   2.0000     -20.576151      -559.9055
   1   2.0000     -20.570132      -559.7417
   2   2.0000     -20.561305      -559.5016
   3   2.0000     -20.551837      -559.2439
   4   2.0000     -20.548431      -559.1512
   5   2.0000      -1.370524       -37.2938
   6   2.0000      -1.354492       -36.8576
   7   2.0000      -1.348377       -36.6912
   8   2.0000      -1.339679       -36.4545
   9   2.0000      -1.327892       -36.1338
  10   2.0000      -0.742564       -20.2062
  11   2.0000      -0.728844       -19.8329
  12   2.0000      -0.712381       -19.3849
  13   2.0000      -0.698031       -18.9944
  14   2.0000      -0.693625       -18.8745
  15   2.0000      -0.624696       -16.9988
  16   2.0000      -0.607763       -16.5381
  17   2.0000      -0.592288       -16.1170
  18   2.0000      -0.582579       -15.8528
  19   2.0000      -0.558153       -15.1881
  20   2.0000      -0.525977       -14.3126
  21   2.0000      -0.518636       -14.1128
  22   2.0000      -0.510468       -13.8905
  23   2.0000      -0.497732       -13.5440
  24   2.0000      -0.490276       -13.3411
  25   0.0000       0.112262         3.0548
  26   0.0000       0.145036         3.9466
  27   0.0000       0.157104         4.2750
  28   0.0000       0.193173         5.2565
  29   0.0000       0.230588         6.2746

MULLIKEN ATOMIC CHARGES
-----------------------
   0 O :   -0.708797
   1 H :    0.361472
   2 H :    0.359018
   3 O :   -0.750942
   4 H :    0.387246
   5 H :    0.351169
   6 O :   -0.730070
   7 H :    0.371864
   8 H :    0.367609
   9 O :   -0.728393
  10 H :    0.342729
  11 H :    0.367197
  12 O :   -0.729161
  13 H :    0.393153
  14 H :    0.345906
Sum of atomic charges:   -0.0000000

LOEWDIN ATOMIC CHARGES
----------------------
   0 O :   -0.306263
   1 H :    0.153214
   2 H :    0.158242
   3 O :   -0.318939
   4 H :    0.152594
   5 H :    0.162552
   6 O :   -0.301430
   7 H :    0.153509
   8 H :    0.156687
   9 O :   -0.327035
  10 H :    0.161852
  11 H :    0.151364
  12 O :   -0.311644
  13 H :    0.153655
  14 H :    0.161641

  Mayer bond orders larger than 0.100000
B(  0-O ,  1-H ) :   0.8203 B(  0-O ,  2-H ) :   0.8296 B(  3-O ,  4-H ) :   0.7423
B(  3-O ,  5-H ) :   0.8414 B(  4-H , 12-O ) :   0.1069 B(  6-O ,  7-H ) :   0.7949
B(  6-O ,  8-H ) :   0.8174 B(  9-O , 10-H ) :   0.8465 B(  9-O , 11-H ) :   0.7868
B( 12-O , 13-H ) :   0.7531 B( 12-O , 14-H ) :   0.8439

MP2 TOTAL ENERGY:     -381.627731397 Eh
FINAL SINGLE POINT ENERGY      -381.627731396558

DIPOLE MOMENT
-------------
                                X             Y             Z
Electronic contribution:     -0.23930      -0.14275       0.09203
Nuclear contribution   :      1.44781       0.66015      -0.73439
                        -----------------------------------------
Total Dipole Moment    :      1.20850       0.51740      -0.64236
                        -----------------------------------------
Magnitude (a.u.)       :      1.46315
Magnitude (Debye)      :      3.71904

Rotational constants in cm-1:     0.084930     0.064908     0.057029
Rotational constants in MHz :  2546.140017  1945.891276  1709.682951

                             ****ORCA TERMINATED NORMALLY****
TOTAL RUN TIME: 0 days 0 hours 0 minutes 41 seconds 910 msec
