                         Program Version 4.2.0 -  RELEASE  -
|  1> # 12mecn.remya.etal.2.mol2,4,8
|  2> ! MP2 def2-TZVP EnGrad TightSCF
|  3>
|  4> %pal
|  5>     nprocs 6
|  6> end
|  7>
|  8> %maxcore 8000
|  9>
| 10> %scf
| 11>     ConvForced true
| 12> end
| 13>
| 14> *xyz 0 1
| 15> C  -4.219070000  -3.477410000  -1.501740000
| 16> H  -3.251530000  -3.803540000  -1.893830000
| 17> H  -4.452920000  -2.481700000  -1.890840000
| 18> H  -4.992170000  -4.178130000  -1.824640000
| 19> C  -4.154550000  -3.418790000  -0.058340000
| 20> N  -4.091140000  -3.354840000   1.104432000
| 21> C  -1.509690000  -0.693960000  -1.610140000
| 22> H  -1.327010000  -1.692700000  -2.017370000
| 23> H  -0.742170000  -0.000650000  -1.964400000
| 24> H  -2.491920000  -0.334310000  -1.929350000
| 25> C  -1.473570000  -0.748120000  -0.167200000
| 26> N  -1.447490000  -0.793720000   0.998938000
| 27> C   1.912641000  -2.468050000  -1.750510000
| 28> H   2.876947000  -2.793500000  -2.151200000
| 29> H   1.688016000  -1.463720000  -2.122170000
| 30> H   1.123460000  -3.154780000  -2.069590000
| 31> C   1.977850000  -2.444240000  -0.306900000
| 32> N   2.036566000  -2.426130000   0.858249000
| 33> *
| 34>
| 35>                          ****END OF INPUT****

CARTESIAN COORDINATES (ANGSTROEM)
---------------------------------
  C     -4.219070   -3.477410   -1.501740
  H     -3.251530   -3.803540   -1.893830
  H     -4.452920   -2.481700   -1.890840
  H     -4.992170   -4.178130   -1.824640
  C     -4.154550   -3.418790   -0.058340
  N     -4.091140   -3.354840    1.104432
  C     -1.509690   -0.693960   -1.610140
  H     -1.327010   -1.692700   -2.017370
  H     -0.742170   -0.000650   -1.964400
  H     -2.491920   -0.334310   -1.929350
  C     -1.473570   -0.748120   -0.167200
  N     -1.447490   -0.793720    0.998938
  C      1.912641   -2.468050   -1.750510
  H      2.876947   -2.793500   -2.151200
  H      1.688016   -1.463720   -2.122170
  H      1.123460   -3.154780   -2.069590
  C      1.977850   -2.444240   -0.306900
  N      2.036566   -2.426130    0.858249

 Total Charge           Charge          ....    0
 Multiplicity           Mult            ....    1
 Number of Electrons    NEL             ....   66
 Basis Dimension        Dim             ....  333

ORBITAL ENERGIES
----------------

  NO   OCC          E(Eh)            E(eV)
   0   2.0000     -15.572766      -423.7565
   1   2.0000     -15.572036      -423.7366
   2   2.0000     -15.571144      -423.7124
   3   2.0000     -11.295081      -307.3548
   4   2.0000     -11.292492      -307.2843
   5   2.0000     -11.291850      -307.2669
   6   2.0000     -11.277287      -306.8706
   7   2.0000     -11.276372      -306.8457
   8   2.0000     -11.273928      -306.7792
   9   2.0000      -1.212872       -33.0039
  10   2.0000      -1.212407       -32.9913
  11   2.0000      -1.209722       -32.9182
  12   2.0000      -1.052430       -28.6381
  13   2.0000      -1.048871       -28.5412
  14   2.0000      -1.047636       -28.5076
  15   2.0000      -0.706761       -19.2320
  16   2.0000      -0.704398       -19.1676
  17   2.0000      -0.702681       -19.1209
  18   2.0000      -0.648054       -17.6345
  19   2.0000      -0.646938       -17.6041
  20   2.0000      -0.638744       -17.3811
  21   2.0000      -0.638103       -17.3637
  22   2.0000      -0.633934       -17.2502
  23   2.0000      -0.631547       -17.1853
  24   2.0000      -0.553598       -15.0642
  25   2.0000      -0.552797       -15.0424
  26   2.0000      -0.549160       -14.9434
  27   2.0000      -0.463227       -12.6051
  28   2.0000      -0.461031       -12.5453
  29   2.0000      -0.456265       -12.4156
  30   2.0000      -0.455761       -12.4019
  31   2.0000      -0.448506       -12.2045
  32   2.0000      -0.445343       -12.1184
  33   0.0000       0.080502         2.1906
  34   0.0000       0.120180         3.2703
  35   0.0000       0.125583         3.4173
  36   0.0000       0.147419         4.0115
  37   0.0000       0.154112         4.1936

MULLIKEN ATOMIC CHARGES
-----------------------
   0 C :   -0.285432
   1 H :    0.160777
   2 H :    0.163508
   3 H :    0.183086
   4 C :   -0.154977
   5 N :   -0.066713
   6 C :   -0.294723
   7 H :    0.153893
   8 H :    0.178969
   9 H :    0.177393
  10 C :   -0.157649
  11 N :   -0.058405
  12 C :   -0.287811
  13 H :    0.183387
  14 H :    0.162635
  15 H :    0.163806
  16 C :   -0.152250
  17 N :   -0.069492
Sum of atomic charges:   -0.0000000

LOEWDIN ATOMIC CHARGES
----------------------
   0 C :   -0.289012
   1 H :    0.147878
   2 H :    0.149082
   3 H :    0.152077
   4 C :   -0.225178
   5 N :    0.065296
   6 C :   -0.292537
   7 H :    0.144343
   8 H :    0.151098
   9 H :    0.151251
  10 C :   -0.229495
  11 N :    0.075098
  12 C :   -0.288882
  13 H :    0.153799
  14 H :    0.148017
  15 H :    0.148340
  16 C :   -0.224869
  17 N :    0.063693

  Mayer bond orders larger than 0.100000
B(  0-C ,  1-H ) :   0.9238 B(  0-C ,  2-H ) :   0.9209 B(  0-C ,  3-H ) :   0.9114
B(  0-C ,  4-C ) :   0.8988 B(  4-C ,  5-N ) :   2.8229 B(  6-C ,  7-H ) :   0.9245
B(  6-C ,  8-H ) :   0.9180 B(  6-C ,  9-H ) :   0.9176 B(  6-C , 10-C ) :   0.8897
B( 10-C , 11-N ) :   2.8101 B( 12-C , 13-H ) :   0.9114 B( 12-C , 14-H ) :   0.9203
B( 12-C , 15-H ) :   0.9238 B( 12-C , 16-C ) :   0.8969 B( 16-C , 17-N ) :   2.8250

MP2 TOTAL ENERGY:     -397.444240888 Eh
FINAL SINGLE POINT ENERGY      -397.444240887814

DIPOLE MOMENT
-------------
                                X             Y             Z
Electronic contribution:      0.37043       0.04139       9.71489
Nuclear contribution   :     -0.54237      -0.07202     -13.90431
                        -----------------------------------------
Total Dipole Moment    :     -0.17194      -0.03062      -4.18942
                        -----------------------------------------
Magnitude (a.u.)       :      4.19306
Magnitude (Debye)      :     10.65792

Rotational constants in cm-1:     0.056331     0.017986     0.017635
Rotational constants in MHz :  1688.773285   539.210493   528.673763

                             ****ORCA TERMINATED NORMALLY****
TOTAL RUN TIME: 0 days 0 hours 5 minutes 51 seconds 353 msec
