                         Program Version 4.2.0 -  RELEASE  -
|  1> # 12h2o.su.etal.mol0,1,2,3,5,10
|  2> ! MP2 def2-TZVP EnGrad TightSCF
|  3>
|  4> %pal
|  5>     nprocs 6
|  6> end
|  7>
|  8> %maxcore 8000
|  9>
| 10> %scf
| 11>     ConvForced true
| 12> end
| 13>
| 14> *xyz 0 1
| 15> O   1.794470000   0.923410000   2.768350000
| 16> H   2.338250000   1.359750000   3.430940000
| 17> H   0.879480000   1.303000000   2.865760000
| 18> O  -1.794470000  -0.923410000   2.768350000
| 19> H  -2.338250000  -1.359750000   3.430940000
| 20> H  -0.879480000  -1.303000000   2.865760000
| 21> O   0.923410000  -1.794470000  -2.768350000
| 22> H   1.359750000  -2.338250000  -3.430940000
| 23> H   1.303000000  -0.879480000  -2.865760000
| 24> O  -1.752130000  -0.741530000  -2.896280000
| 25> H  -2.036450000  -0.920500000  -1.984040000
| 26> H  -0.921210000  -1.242140000  -2.984230000
| 27> O   0.885520000  -1.737840000   0.052730000
| 28> H   1.284090000  -0.839590000   0.017130000
| 29> H   1.032320000  -2.090180000  -0.841890000
| 30> O  -0.923410000   1.794470000  -2.768350000
| 31> H  -1.359750000   2.338250000  -3.430940000
| 32> H  -1.303000000   0.879480000  -2.865760000
| 33> *
| 34>
| 35>                          ****END OF INPUT****

CARTESIAN COORDINATES (ANGSTROEM)
---------------------------------
  O      1.794470    0.923410    2.768350
  H      2.338250    1.359750    3.430940
  H      0.879480    1.303000    2.865760
  O     -1.794470   -0.923410    2.768350
  H     -2.338250   -1.359750    3.430940
  H     -0.879480   -1.303000    2.865760
  O      0.923410   -1.794470   -2.768350
  H      1.359750   -2.338250   -3.430940
  H      1.303000   -0.879480   -2.865760
  O     -1.752130   -0.741530   -2.896280
  H     -2.036450   -0.920500   -1.984040
  H     -0.921210   -1.242140   -2.984230
  O      0.885520   -1.737840    0.052730
  H      1.284090   -0.839590    0.017130
  H      1.032320   -2.090180   -0.841890
  O     -0.923410    1.794470   -2.768350
  H     -1.359750    2.338250   -3.430940
  H     -1.303000    0.879480   -2.865760

 Total Charge           Charge          ....    0
 Multiplicity           Mult            ....    1
 Number of Electrons    NEL             ....   60
 Basis Dimension        Dim             ....  258

ORBITAL ENERGIES
----------------

  NO   OCC          E(Eh)            E(eV)
   0   2.0000     -20.615486      -560.9759
   1   2.0000     -20.564495      -559.5884
   2   2.0000     -20.559094      -559.4414
   3   2.0000     -20.549141      -559.1706
   4   2.0000     -20.533258      -558.7384
   5   2.0000     -20.512731      -558.1798
   6   2.0000      -1.395873       -37.9836
   7   2.0000      -1.353205       -36.8226
   8   2.0000      -1.334401       -36.3109
   9   2.0000      -1.324510       -36.0418
  10   2.0000      -1.312375       -35.7115
  11   2.0000      -1.294663       -35.2296
  12   2.0000      -0.761393       -20.7186
  13   2.0000      -0.716235       -19.4897
  14   2.0000      -0.702825       -19.1248
  15   2.0000      -0.692305       -18.8386
  16   2.0000      -0.685193       -18.6451
  17   2.0000      -0.681926       -18.5562
  18   2.0000      -0.632222       -17.2036
  19   2.0000      -0.596340       -16.2272
  20   2.0000      -0.570928       -15.5357
  21   2.0000      -0.568782       -15.4774
  22   2.0000      -0.560987       -15.2652
  23   2.0000      -0.542868       -14.7722
  24   2.0000      -0.535811       -14.5802
  25   2.0000      -0.502530       -13.6745
  26   2.0000      -0.496404       -13.5078
  27   2.0000      -0.492473       -13.4009
  28   2.0000      -0.478611       -13.0237
  29   2.0000      -0.463445       -12.6110
  30   0.0000       0.095421         2.5965
  31   0.0000       0.121117         3.2958
  32   0.0000       0.150875         4.1055
  33   0.0000       0.156312         4.2535
  34   0.0000       0.174514         4.7488

MULLIKEN ATOMIC CHARGES
-----------------------
   0 O :   -0.689129
   1 H :    0.337472
   2 H :    0.353160
   3 O :   -0.691554
   4 H :    0.332708
   5 H :    0.357768
   6 O :   -0.719389
   7 H :    0.364977
   8 H :    0.376745
   9 O :   -0.703617
  10 H :    0.364201
  11 H :    0.370289
  12 O :   -0.697438
  13 H :    0.336325
  14 H :    0.356889
  15 O :   -0.738069
  16 H :    0.323710
  17 H :    0.364949
Sum of atomic charges:   -0.0000000

LOEWDIN ATOMIC CHARGES
----------------------
   0 O :   -0.340286
   1 H :    0.157626
   2 H :    0.184297
   3 O :   -0.341913
   4 H :    0.155301
   5 H :    0.185080
   6 O :   -0.287377
   7 H :    0.168328
   8 H :    0.194274
   9 O :   -0.282940
  10 H :    0.175754
  11 H :    0.151439
  12 O :   -0.345583
  13 H :    0.169167
  14 H :    0.144618
  15 O :   -0.376327
  16 H :    0.147667
  17 H :    0.140874

  Mayer bond orders larger than 0.100000
B(  0-O ,  1-H ) :   0.8533 B(  0-O ,  2-H ) :   0.8366 B(  3-O ,  4-H ) :   0.8560
B(  3-O ,  5-H ) :   0.8326 B(  6-O ,  7-H ) :   0.8314 B(  6-O ,  8-H ) :   0.8145
B(  9-O , 10-H ) :   0.8326 B(  9-O , 11-H ) :   0.8081 B( 12-O , 13-H ) :   0.8487
B( 12-O , 14-H ) :   0.8297 B( 15-O , 16-H ) :   0.8613 B( 15-O , 17-H ) :   0.7770

MP2 TOTAL ENERGY:     -457.904728326 Eh
FINAL SINGLE POINT ENERGY      -457.904728325879

DIPOLE MOMENT
-------------
                                X             Y             Z
Electronic contribution:     -0.04883      -0.38251      -0.09742
Nuclear contribution   :      0.90891      -0.11126      -0.08817
                        -----------------------------------------
Total Dipole Moment    :      0.86008      -0.49377      -0.18559
                        -----------------------------------------
Magnitude (a.u.)       :      1.00895
Magnitude (Debye)      :      2.56456

Rotational constants in cm-1:     0.042175     0.018842     0.018282
Rotational constants in MHz :  1264.381259   564.883232   548.089706

                             ****ORCA TERMINATED NORMALLY****
TOTAL RUN TIME: 0 days 0 hours 0 minutes 44 seconds 826 msec
