                         Program Version 4.2.0 -  RELEASE  -
|  1> # 12h2o.su.etal.mol1,5,6,7,8
|  2> ! MP2 def2-TZVP EnGrad TightSCF
|  3>
|  4> %pal
|  5>     nprocs 6
|  6> end
|  7>
|  8> %maxcore 8000
|  9>
| 10> %scf
| 11>     ConvForced true
| 12> end
| 13>
| 14> *xyz 0 1
| 15> O  -1.794470000  -0.923410000   2.768350000
| 16> H  -2.338250000  -1.359750000   3.430940000
| 17> H  -0.879480000  -1.303000000   2.865760000
| 18> O   0.885520000  -1.737840000   0.052730000
| 19> H   1.284090000  -0.839590000   0.017130000
| 20> H   1.032320000  -2.090180000  -0.841890000
| 21> O   1.737840000   0.885520000  -0.052730000
| 22> H   2.090180000   1.032320000   0.841890000
| 23> H   0.839590000   1.284090000  -0.017130000
| 24> O  -1.737840000  -0.885520000  -0.052730000
| 25> H  -2.090180000  -1.032320000   0.841890000
| 26> H  -0.839590000  -1.284090000  -0.017130000
| 27> O   1.752130000   0.741530000  -2.896280000
| 28> H   2.036450000   0.920500000  -1.984040000
| 29> H   0.921210000   1.242140000  -2.984230000
| 30> *
| 31>
| 32>                          ****END OF INPUT****

CARTESIAN COORDINATES (ANGSTROEM)
---------------------------------
  O     -1.794470   -0.923410    2.768350
  H     -2.338250   -1.359750    3.430940
  H     -0.879480   -1.303000    2.865760
  O      0.885520   -1.737840    0.052730
  H      1.284090   -0.839590    0.017130
  H      1.032320   -2.090180   -0.841890
  O      1.737840    0.885520   -0.052730
  H      2.090180    1.032320    0.841890
  H      0.839590    1.284090   -0.017130
  O     -1.737840   -0.885520   -0.052730
  H     -2.090180   -1.032320    0.841890
  H     -0.839590   -1.284090   -0.017130
  O      1.752130    0.741530   -2.896280
  H      2.036450    0.920500   -1.984040
  H      0.921210    1.242140   -2.984230

 Total Charge           Charge          ....    0
 Multiplicity           Mult            ....    1
 Number of Electrons    NEL             ....   50
 Basis Dimension        Dim             ....  215

ORBITAL ENERGIES
----------------

  NO   OCC          E(Eh)            E(eV)
   0   2.0000     -20.623407      -561.1914
   1   2.0000     -20.584002      -560.1192
   2   2.0000     -20.561070      -559.4952
   3   2.0000     -20.544444      -559.0428
   4   2.0000     -20.498781      -557.8002
   5   2.0000      -1.406548       -38.2741
   6   2.0000      -1.361918       -37.0597
   7   2.0000      -1.346719       -36.6461
   8   2.0000      -1.326338       -36.0915
   9   2.0000      -1.283082       -34.9144
  10   2.0000      -0.764264       -20.7967
  11   2.0000      -0.728905       -19.8345
  12   2.0000      -0.718818       -19.5600
  13   2.0000      -0.699107       -19.0237
  14   2.0000      -0.666585       -18.1387
  15   2.0000      -0.642434       -17.4815
  16   2.0000      -0.605630       -16.4800
  17   2.0000      -0.595134       -16.1944
  18   2.0000      -0.563900       -15.3445
  19   2.0000      -0.553596       -15.0641
  20   2.0000      -0.543788       -14.7972
  21   2.0000      -0.516002       -14.0411
  22   2.0000      -0.491898       -13.3852
  23   2.0000      -0.490344       -13.3429
  24   2.0000      -0.449894       -12.2422
  25   0.0000       0.088222         2.4006
  26   0.0000       0.121614         3.3093
  27   0.0000       0.150324         4.0905
  28   0.0000       0.166637         4.5344
  29   0.0000       0.193348         5.2613

MULLIKEN ATOMIC CHARGES
-----------------------
   0 O :   -0.695653
   1 H :    0.348213
   2 H :    0.354481
   3 O :   -0.716592
   4 H :    0.363283
   5 H :    0.359344
   6 O :   -0.715484
   7 H :    0.369249
   8 H :    0.375253
   9 O :   -0.740649
  10 H :    0.358299
  11 H :    0.338254
  12 O :   -0.692519
  13 H :    0.364618
  14 H :    0.329901
Sum of atomic charges:    0.0000000

LOEWDIN ATOMIC CHARGES
----------------------
   0 O :   -0.312463
   1 H :    0.161336
   2 H :    0.184558
   3 O :   -0.313115
   4 H :    0.142568
   5 H :    0.171584
   6 O :   -0.276551
   7 H :    0.177999
   8 H :    0.186426
   9 O :   -0.374890
  10 H :    0.143071
  11 H :    0.133196
  12 O :   -0.336192
  13 H :    0.149361
  14 H :    0.163113

  Mayer bond orders larger than 0.100000
B(  0-O ,  1-H ) :   0.8438 B(  0-O ,  2-H ) :   0.8339 B(  3-O ,  4-H ) :   0.7937
B(  3-O ,  5-H ) :   0.8366 B(  6-O ,  7-H ) :   0.8284 B(  6-O ,  8-H ) :   0.8151
B(  9-O , 10-H ) :   0.8299 B(  9-O , 11-H ) :   0.8056 B( 12-O , 13-H ) :   0.8286
B( 12-O , 14-H ) :   0.8568

MP2 TOTAL ENERGY:     -381.593953639 Eh
FINAL SINGLE POINT ENERGY      -381.593953639023

DIPOLE MOMENT
-------------
                                X             Y             Z
Electronic contribution:      0.23383       0.09967      -0.08016
Nuclear contribution   :      0.30796       0.34090       2.09298
                        -----------------------------------------
Total Dipole Moment    :      0.54179       0.44057       2.01281
                        -----------------------------------------
Magnitude (a.u.)       :      2.13051
Magnitude (Debye)      :      5.41532

Rotational constants in cm-1:     0.120718     0.031306     0.029679
Rotational constants in MHz :  3619.029343   938.544656   889.756916

                             ****ORCA TERMINATED NORMALLY****
TOTAL RUN TIME: 0 days 0 hours 0 minutes 37 seconds 101 msec
