                         Program Version 4.2.0 -  RELEASE  -
|  1> # 12mecn.remya.etal.2.mol0,4,9
|  2> ! MP2 def2-TZVP EnGrad TightSCF
|  3>
|  4> %pal
|  5>     nprocs 6
|  6> end
|  7>
|  8> %maxcore 8000
|  9>
| 10> %scf
| 11>     ConvForced true
| 12> end
| 13>
| 14> *xyz 0 1
| 15> C  -0.869520000  -3.929380000   1.700199000
| 16> H  -0.057420000  -3.268850000   2.015352000
| 17> H  -0.697530000  -4.930670000   2.101524000
| 18> H  -1.821490000  -3.546590000   2.077146000
| 19> C  -0.916080000  -3.969960000   0.256749000
| 20> N  -0.955390000  -3.995980000  -0.909290000
| 21> C  -1.509690000  -0.693960000  -1.610140000
| 22> H  -1.327010000  -1.692700000  -2.017370000
| 23> H  -0.742170000  -0.000650000  -1.964400000
| 24> H  -2.491920000  -0.334310000  -1.929350000
| 25> C  -1.473570000  -0.748120000  -0.167200000
| 26> N  -1.447490000  -0.793720000   0.998938000
| 27> C   0.923766000   4.000693000  -1.575910000
| 28> H   0.011949000   4.478423000  -1.939550000
| 29> H   0.947903000   2.966558000  -1.929960000
| 30> H   1.805950000   4.519548000  -1.956520000
| 31> C   0.942834000   3.994846000  -0.131200000
| 32> N   0.960035000   3.982544000   1.035639000
| 33> *
| 34>
| 35>                          ****END OF INPUT****

CARTESIAN COORDINATES (ANGSTROEM)
---------------------------------
  C     -0.869520   -3.929380    1.700199
  H     -0.057420   -3.268850    2.015352
  H     -0.697530   -4.930670    2.101524
  H     -1.821490   -3.546590    2.077146
  C     -0.916080   -3.969960    0.256749
  N     -0.955390   -3.995980   -0.909290
  C     -1.509690   -0.693960   -1.610140
  H     -1.327010   -1.692700   -2.017370
  H     -0.742170   -0.000650   -1.964400
  H     -2.491920   -0.334310   -1.929350
  C     -1.473570   -0.748120   -0.167200
  N     -1.447490   -0.793720    0.998938
  C      0.923766    4.000693   -1.575910
  H      0.011949    4.478423   -1.939550
  H      0.947903    2.966558   -1.929960
  H      1.805950    4.519548   -1.956520
  C      0.942834    3.994846   -0.131200
  N      0.960035    3.982544    1.035639

 Total Charge           Charge          ....    0
 Multiplicity           Mult            ....    1
 Number of Electrons    NEL             ....   66
 Basis Dimension        Dim             ....  333

ORBITAL ENERGIES
----------------

  NO   OCC          E(Eh)            E(eV)
   0   2.0000     -15.573793      -423.7845
   1   2.0000     -15.571132      -423.7120
   2   2.0000     -15.569987      -423.6809
   3   2.0000     -11.287522      -307.1491
   4   2.0000     -11.282227      -307.0050
   5   2.0000     -11.281802      -306.9934
   6   2.0000     -11.280101      -306.9471
   7   2.0000     -11.276205      -306.8411
   8   2.0000     -11.271884      -306.7236
   9   2.0000      -1.216936       -33.1145
  10   2.0000      -1.214542       -33.0494
  11   2.0000      -1.212683       -32.9988
  12   2.0000      -1.046502       -28.4768
  13   2.0000      -1.038751       -28.2658
  14   2.0000      -1.034051       -28.1380
  15   2.0000      -0.702465       -19.1150
  16   2.0000      -0.695094       -18.9145
  17   2.0000      -0.691017       -18.8035
  18   2.0000      -0.636504       -17.3202
  19   2.0000      -0.633288       -17.2326
  20   2.0000      -0.631148       -17.1744
  21   2.0000      -0.626211       -17.0401
  22   2.0000      -0.620374       -16.8812
  23   2.0000      -0.616865       -16.7857
  24   2.0000      -0.558195       -15.1893
  25   2.0000      -0.555754       -15.1228
  26   2.0000      -0.555370       -15.1124
  27   2.0000      -0.462901       -12.5962
  28   2.0000      -0.458202       -12.4683
  29   2.0000      -0.458114       -12.4659
  30   2.0000      -0.457257       -12.4426
  31   2.0000      -0.456303       -12.4166
  32   2.0000      -0.451553       -12.2874
  33   0.0000       0.098166         2.6712
  34   0.0000       0.131392         3.5754
  35   0.0000       0.144495         3.9319
  36   0.0000       0.161888         4.4052
  37   0.0000       0.169025         4.5994

MULLIKEN ATOMIC CHARGES
-----------------------
   0 C :   -0.258761
   1 H :    0.178129
   2 H :    0.171275
   3 H :    0.178431
   4 C :   -0.119668
   5 N :   -0.148551
   6 C :   -0.283894
   7 H :    0.206611
   8 H :    0.153706
   9 H :    0.167506
  10 C :   -0.112784
  11 N :   -0.131976
  12 C :   -0.279712
  13 H :    0.172955
  14 H :    0.163341
  15 H :    0.174592
  16 C :   -0.144221
  17 N :   -0.086980
Sum of atomic charges:    0.0000000

LOEWDIN ATOMIC CHARGES
----------------------
   0 C :   -0.283488
   1 H :    0.157328
   2 H :    0.149035
   3 H :    0.157278
   4 C :   -0.210064
   5 N :    0.027201
   6 C :   -0.282813
   7 H :    0.157315
   8 H :    0.147661
   9 H :    0.152225
  10 C :   -0.211704
  11 N :    0.040066
  12 C :   -0.284419
  13 H :    0.151403
  14 H :    0.150260
  15 H :    0.152306
  16 C :   -0.220286
  17 N :    0.050697

  Mayer bond orders larger than 0.100000
B(  0-C ,  1-H ) :   0.9121 B(  0-C ,  2-H ) :   0.9105 B(  0-C ,  3-H ) :   0.9118
B(  0-C ,  4-C ) :   0.9122 B(  4-C ,  5-N ) :   2.7805 B(  6-C ,  7-H ) :   0.9030
B(  6-C ,  8-H ) :   0.9191 B(  6-C ,  9-H ) :   0.9167 B(  6-C , 10-C ) :   0.8970
B( 10-C , 11-N ) :   2.7887 B( 12-C , 13-H ) :   0.9168 B( 12-C , 14-H ) :   0.9193
B( 12-C , 15-H ) :   0.9168 B( 12-C , 16-C ) :   0.9008 B( 16-C , 17-N ) :   2.8313

MP2 TOTAL ENERGY:     -397.458022185 Eh
FINAL SINGLE POINT ENERGY      -397.458022184850

DIPOLE MOMENT
-------------
                                X             Y             Z
Electronic contribution:      0.01389      -0.21261       3.19864
Nuclear contribution   :     -0.02387       0.31051      -4.63285
                        -----------------------------------------
Total Dipole Moment    :     -0.00998       0.09790      -1.43422
                        -----------------------------------------
Magnitude (a.u.)       :      1.43759
Magnitude (Debye)      :      3.65406

Rotational constants in cm-1:     0.079156     0.011534     0.010645
Rotational constants in MHz :  2373.028891   345.772555   319.132288

                             ****ORCA TERMINATED NORMALLY****
TOTAL RUN TIME: 0 days 0 hours 3 minutes 7 seconds 129 msec
