                         Program Version 4.2.0 -  RELEASE  -
|  1> # 12h2o.su.etal.mol0,5,7
|  2> ! MP2 def2-TZVP EnGrad TightSCF
|  3>
|  4> %pal
|  5>     nprocs 6
|  6> end
|  7>
|  8> %maxcore 8000
|  9>
| 10> %scf
| 11>     ConvForced true
| 12> end
| 13>
| 14> *xyz 0 1
| 15> O   1.794470000   0.923410000   2.768350000
| 16> H   2.338250000   1.359750000   3.430940000
| 17> H   0.879480000   1.303000000   2.865760000
| 18> O   0.885520000  -1.737840000   0.052730000
| 19> H   1.284090000  -0.839590000   0.017130000
| 20> H   1.032320000  -2.090180000  -0.841890000
| 21> O  -1.737840000  -0.885520000  -0.052730000
| 22> H  -2.090180000  -1.032320000   0.841890000
| 23> H  -0.839590000  -1.284090000  -0.017130000
| 24> *
| 25>
| 26>                          ****END OF INPUT****

CARTESIAN COORDINATES (ANGSTROEM)
---------------------------------
  O      1.794470    0.923410    2.768350
  H      2.338250    1.359750    3.430940
  H      0.879480    1.303000    2.865760
  O      0.885520   -1.737840    0.052730
  H      1.284090   -0.839590    0.017130
  H      1.032320   -2.090180   -0.841890
  O     -1.737840   -0.885520   -0.052730
  H     -2.090180   -1.032320    0.841890
  H     -0.839590   -1.284090   -0.017130

 Total Charge           Charge          ....    0
 Multiplicity           Mult            ....    1
 Number of Electrons    NEL             ....   30
 Basis Dimension        Dim             ....  129

ORBITAL ENERGIES
----------------

  NO   OCC          E(Eh)            E(eV)
   0   2.0000     -20.585527      -560.1607
   1   2.0000     -20.569773      -559.7320
   2   2.0000     -20.523168      -558.4638
   3   2.0000      -1.366133       -37.1744
   4   2.0000      -1.345046       -36.6006
   5   2.0000      -1.304323       -35.4924
   6   2.0000      -0.723666       -19.6919
   7   2.0000      -0.713362       -19.4116
   8   2.0000      -0.680240       -18.5103
   9   2.0000      -0.605445       -16.4750
  10   2.0000      -0.581703       -15.8289
  11   2.0000      -0.557118       -15.1599
  12   2.0000      -0.513037       -13.9604
  13   2.0000      -0.512676       -13.9506
  14   2.0000      -0.471551       -12.8316
  15   0.0000       0.106916         2.9093
  16   0.0000       0.134368         3.6563
  17   0.0000       0.169366         4.6087
  18   0.0000       0.198567         5.4033
  19   0.0000       0.208827         5.6825

MULLIKEN ATOMIC CHARGES
-----------------------
   0 O :   -0.686960
   1 H :    0.341995
   2 H :    0.346693
   3 O :   -0.681658
   4 H :    0.366051
   5 H :    0.352293
   6 O :   -0.716304
   7 H :    0.325081
   8 H :    0.352808
Sum of atomic charges:   -0.0000000

LOEWDIN ATOMIC CHARGES
----------------------
   0 O :   -0.340211
   1 H :    0.159533
   2 H :    0.182488
   3 O :   -0.289282
   4 H :    0.182881
   5 H :    0.171171
   6 O :   -0.364614
   7 H :    0.156960
   8 H :    0.141074

  Mayer bond orders larger than 0.100000
B(  0-O ,  1-H ) :   0.8512 B(  0-O ,  2-H ) :   0.8426 B(  3-O ,  4-H ) :   0.8278
B(  3-O ,  5-H ) :   0.8405 B(  6-O ,  7-H ) :   0.8603 B(  6-O ,  8-H ) :   0.8006

MP2 TOTAL ENERGY:     -228.947520889 Eh
FINAL SINGLE POINT ENERGY      -228.947520889359

DIPOLE MOMENT
-------------
                                X             Y             Z
Electronic contribution:      0.18795      -0.16199      -0.07545
Nuclear contribution   :      0.59936       0.67960       0.63259
                        -----------------------------------------
Total Dipole Moment    :      0.78731       0.51760       0.55714
                        -----------------------------------------
Magnitude (a.u.)       :      1.09461
Magnitude (Debye)      :      2.78229

Rotational constants in cm-1:     0.277822     0.074061     0.058981
Rotational constants in MHz :  8328.879128  2220.288903  1768.204515

                             ****ORCA TERMINATED NORMALLY****
TOTAL RUN TIME: 0 days 0 hours 0 minutes 28 seconds 809 msec
