                         Program Version 4.2.0 -  RELEASE  -
|  1> # 12mecn.remya.etal.2.mol6,8,11
|  2> ! MP2 def2-TZVP EnGrad TightSCF
|  3>
|  4> %pal
|  5>     nprocs 6
|  6> end
|  7>
|  8> %maxcore 8000
|  9>
| 10> %scf
| 11>     ConvForced true
| 12> end
| 13>
| 14> *xyz 0 1
| 15> C   5.300864000  -2.920090000   1.401103000
| 16> H   5.986071000  -2.139770000   1.737487000
| 17> H   5.636642000  -3.888750000   1.778233000
| 18> H   4.307359000  -2.697240000   1.799307000
| 19> C   5.234791000  -2.933140000  -0.043290000
| 20> N   5.170868000  -2.941760000  -1.207750000
| 21> C   1.912641000  -2.468050000  -1.750510000
| 22> H   2.876947000  -2.793500000  -2.151200000
| 23> H   1.688016000  -1.463720000  -2.122170000
| 24> H   1.123460000  -3.154780000  -2.069590000
| 25> C   1.977850000  -2.444240000  -0.306900000
| 26> N   2.036566000  -2.426130000   0.858249000
| 27> C   4.214163000   3.378139000   1.593627000
| 28> H   3.242643000   3.657109000   2.012358000
| 29> H   4.969258000   4.086643000   1.941290000
| 30> H   4.482966000   2.372549000   1.931698000
| 31> C   4.130759000   3.388436000   0.150192000
| 32> N   4.050180000   3.381449000  -1.013420000
| 33> *
| 34>
| 35>                          ****END OF INPUT****

CARTESIAN COORDINATES (ANGSTROEM)
---------------------------------
  C      5.300864   -2.920090    1.401103
  H      5.986071   -2.139770    1.737487
  H      5.636642   -3.888750    1.778233
  H      4.307359   -2.697240    1.799307
  C      5.234791   -2.933140   -0.043290
  N      5.170868   -2.941760   -1.207750
  C      1.912641   -2.468050   -1.750510
  H      2.876947   -2.793500   -2.151200
  H      1.688016   -1.463720   -2.122170
  H      1.123460   -3.154780   -2.069590
  C      1.977850   -2.444240   -0.306900
  N      2.036566   -2.426130    0.858249
  C      4.214163    3.378139    1.593627
  H      3.242643    3.657109    2.012358
  H      4.969258    4.086643    1.941290
  H      4.482966    2.372549    1.931698
  C      4.130759    3.388436    0.150192
  N      4.050180    3.381449   -1.013420

 Total Charge           Charge          ....    0
 Multiplicity           Mult            ....    1
 Number of Electrons    NEL             ....   66
 Basis Dimension        Dim             ....  333

ORBITAL ENERGIES
----------------

  NO   OCC          E(Eh)            E(eV)
   0   2.0000     -15.573106      -423.7658
   1   2.0000     -15.571461      -423.7210
   2   2.0000     -15.570636      -423.6986
   3   2.0000     -11.285134      -307.0841
   4   2.0000     -11.283150      -307.0301
   5   2.0000     -11.282961      -307.0250
   6   2.0000     -11.280166      -306.9489
   7   2.0000     -11.272998      -306.7539
   8   2.0000     -11.269636      -306.6624
   9   2.0000      -1.218266       -33.1507
  10   2.0000      -1.214665       -33.0527
  11   2.0000      -1.214018       -33.0351
  12   2.0000      -1.043589       -28.3975
  13   2.0000      -1.036783       -28.2123
  14   2.0000      -1.032677       -28.1006
  15   2.0000      -0.700524       -19.0622
  16   2.0000      -0.696068       -18.9410
  17   2.0000      -0.689808       -18.7706
  18   2.0000      -0.631842       -17.1933
  19   2.0000      -0.630875       -17.1670
  20   2.0000      -0.630666       -17.1613
  21   2.0000      -0.624502       -16.9936
  22   2.0000      -0.619489       -16.8572
  23   2.0000      -0.613537       -16.6952
  24   2.0000      -0.559231       -15.2175
  25   2.0000      -0.555987       -15.1292
  26   2.0000      -0.555916       -15.1272
  27   2.0000      -0.460477       -12.5302
  28   2.0000      -0.458670       -12.4810
  29   2.0000      -0.457813       -12.4577
  30   2.0000      -0.457654       -12.4534
  31   2.0000      -0.456865       -12.4319
  32   2.0000      -0.455969       -12.4075
  33   0.0000       0.109539         2.9807
  34   0.0000       0.133044         3.6203
  35   0.0000       0.141346         3.8462
  36   0.0000       0.168239         4.5780
  37   0.0000       0.170917         4.6509

MULLIKEN ATOMIC CHARGES
-----------------------
   0 C :   -0.289056
   1 H :    0.162954
   2 H :    0.167365
   3 H :    0.205355
   4 C :   -0.100488
   5 N :   -0.146976
   6 C :   -0.284811
   7 H :    0.205844
   8 H :    0.172139
   9 H :    0.165508
  10 C :   -0.100582
  11 N :   -0.157256
  12 C :   -0.278677
  13 H :    0.173094
  14 H :    0.171721
  15 H :    0.170873
  16 C :   -0.145119
  17 N :   -0.091889
Sum of atomic charges:   -0.0000000

LOEWDIN ATOMIC CHARGES
----------------------
   0 C :   -0.283455
   1 H :    0.149397
   2 H :    0.151105
   3 H :    0.156622
   4 C :   -0.207190
   5 N :    0.033269
   6 C :   -0.281287
   7 H :    0.157383
   8 H :    0.154763
   9 H :    0.150936
  10 C :   -0.206776
  11 N :    0.025233
  12 C :   -0.283846
  13 H :    0.153366
  14 H :    0.150814
  15 H :    0.152807
  16 C :   -0.219110
  17 N :    0.045970

  Mayer bond orders larger than 0.100000
B(  0-C ,  1-H ) :   0.9174 B(  0-C ,  2-H ) :   0.9147 B(  0-C ,  3-H ) :   0.9018
B(  0-C ,  4-C ) :   0.9021 B(  4-C ,  5-N ) :   2.7681 B(  6-C ,  7-H ) :   0.9007
B(  6-C ,  8-H ) :   0.9129 B(  6-C ,  9-H ) :   0.9159 B(  6-C , 10-C ) :   0.9019
B( 10-C , 11-N ) :   2.7719 B( 12-C , 13-H ) :   0.9160 B( 12-C , 14-H ) :   0.9168
B( 12-C , 15-H ) :   0.9163 B( 12-C , 16-C ) :   0.9031 B( 16-C , 17-N ) :   2.8367

MP2 TOTAL ENERGY:     -397.459710227 Eh
FINAL SINGLE POINT ENERGY      -397.459710227089

DIPOLE MOMENT
-------------
                                X             Y             Z
Electronic contribution:     -0.17032       0.02630      -3.18285
Nuclear contribution   :      0.25859      -0.03249       4.66309
                        -----------------------------------------
Total Dipole Moment    :      0.08827      -0.00619       1.48024
                        -----------------------------------------
Magnitude (a.u.)       :      1.48288
Magnitude (Debye)      :      3.76918

Rotational constants in cm-1:     0.042945     0.014433     0.013133
Rotational constants in MHz :  1287.451749   432.697058   393.731275

                             ****ORCA TERMINATED NORMALLY****
TOTAL RUN TIME: 0 days 0 hours 3 minutes 5 seconds 324 msec
