                         Program Version 4.2.0 -  RELEASE  -
|  1> # 12meoh.boyd.etal.mol2,5,8
|  2> ! MP2 def2-TZVP EnGrad TightSCF
|  3>
|  4> %pal
|  5>     nprocs 6
|  6> end
|  7>
|  8> %maxcore 8000
|  9>
| 10> %scf
| 11>     ConvForced true
| 12> end
| 13>
| 14> *xyz 0 1
| 15> O  -3.839777402   2.233595098   0.660436763
| 16> H  -2.958345897   1.907036203   0.973588449
| 17> C  -3.600368059   3.168790682  -0.390480452
| 18> H  -4.551709193   3.344148967  -0.901254863
| 19> H  -2.868237594   2.789240199  -1.113617525
| 20> H  -3.243594915   4.128998607   0.009549480
| 21> O  -0.662721750   1.449094618  -1.383082065
| 22> H   0.064188300   2.119867608  -1.465650660
| 23> C  -0.353319239   0.341218776  -2.229326771
| 24> H  -1.072358530  -0.454743281  -2.019906495
| 25> H   0.657636746  -0.044472139  -2.042736771
| 26> H  -0.434616607   0.624733901  -3.287793021
| 27> O   3.570084754   2.361662577  -0.202416728
| 28> H   3.393280933   1.755669977   0.560634073
| 29> C   4.368082883   1.644741793  -1.143112807
| 30> H   4.552851717   2.311801738  -1.989632421
| 31> H   3.862427494   0.740851663  -1.508095690
| 32> H   5.333949674   1.357289092  -0.706288100
| 33> *
| 34>
| 35>                          ****END OF INPUT****

CARTESIAN COORDINATES (ANGSTROEM)
---------------------------------
  O     -3.839777    2.233595    0.660437
  H     -2.958346    1.907036    0.973588
  C     -3.600368    3.168791   -0.390480
  H     -4.551709    3.344149   -0.901255
  H     -2.868238    2.789240   -1.113618
  H     -3.243595    4.128999    0.009549
  O     -0.662722    1.449095   -1.383082
  H      0.064188    2.119868   -1.465651
  C     -0.353319    0.341219   -2.229327
  H     -1.072359   -0.454743   -2.019906
  H      0.657637   -0.044472   -2.042737
  H     -0.434617    0.624734   -3.287793
  O      3.570085    2.361663   -0.202417
  H      3.393281    1.755670    0.560634
  C      4.368083    1.644742   -1.143113
  H      4.552852    2.311802   -1.989632
  H      3.862427    0.740852   -1.508096
  H      5.333950    1.357289   -0.706288

 Total Charge           Charge          ....    0
 Multiplicity           Mult            ....    1
 Number of Electrons    NEL             ....   54
 Basis Dimension        Dim             ....  258

ORBITAL ENERGIES
----------------

  NO   OCC          E(Eh)            E(eV)
   0   2.0000     -20.567908      -559.6812
   1   2.0000     -20.564478      -559.5879
   2   2.0000     -20.539225      -558.9007
   3   2.0000     -11.281585      -306.9875
   4   2.0000     -11.278230      -306.8962
   5   2.0000     -11.251845      -306.1783
   6   2.0000      -1.357260       -36.9329
   7   2.0000      -1.352938       -36.8153
   8   2.0000      -1.328448       -36.1489
   9   2.0000      -0.929840       -25.3022
  10   2.0000      -0.926701       -25.2168
  11   2.0000      -0.901101       -24.5202
  12   2.0000      -0.692149       -18.8343
  13   2.0000      -0.688106       -18.7243
  14   2.0000      -0.663450       -18.0534
  15   2.0000      -0.627544       -17.0763
  16   2.0000      -0.623537       -16.9673
  17   2.0000      -0.602023       -16.3819
  18   2.0000      -0.599847       -16.3227
  19   2.0000      -0.594081       -16.1658
  20   2.0000      -0.572260       -15.5720
  21   2.0000      -0.511823       -13.9274
  22   2.0000      -0.508441       -13.8354
  23   2.0000      -0.483109       -13.1461
  24   2.0000      -0.460281       -12.5249
  25   2.0000      -0.456482       -12.4215
  26   2.0000      -0.430691       -11.7197
  27   0.0000       0.106672         2.9027
  28   0.0000       0.144142         3.9223
  29   0.0000       0.156323         4.2538
  30   0.0000       0.171789         4.6746
  31   0.0000       0.178697         4.8626

MULLIKEN ATOMIC CHARGES
-----------------------
   0 O :   -0.507949
   1 H :    0.324339
   2 C :   -0.177440
   3 H :    0.119868
   4 H :    0.127894
   5 H :    0.099677
   6 O :   -0.507216
   7 H :    0.331480
   8 C :   -0.168853
   9 H :    0.134730
  10 H :    0.107221
  11 H :    0.114384
  12 O :   -0.500757
  13 H :    0.324815
  14 C :   -0.178726
  15 H :    0.131727
  16 H :    0.107525
  17 H :    0.117281
Sum of atomic charges:   -0.0000000

LOEWDIN ATOMIC CHARGES
----------------------
   0 O :   -0.114585
   1 H :    0.188443
   2 C :   -0.383586
   3 H :    0.105784
   4 H :    0.097168
   5 H :    0.092748
   6 O :   -0.109084
   7 H :    0.191824
   8 C :   -0.374884
   9 H :    0.111290
  10 H :    0.095869
  11 H :    0.097584
  12 O :   -0.111157
  13 H :    0.189292
  14 C :   -0.379336
  15 H :    0.110911
  16 H :    0.093901
  17 H :    0.097818

  Mayer bond orders larger than 0.100000
B(  0-O ,  1-H ) :   0.8416 B(  0-O ,  2-C ) :   0.9233 B(  2-C ,  3-H ) :   0.9385
B(  2-C ,  4-H ) :   0.9330 B(  2-C ,  5-H ) :   0.9400 B(  6-O ,  7-H ) :   0.8338
B(  6-O ,  8-C ) :   0.9123 B(  8-C ,  9-H ) :   0.9389 B(  8-C , 10-H ) :   0.9351
B(  8-C , 11-H ) :   0.9406 B( 12-O , 13-H ) :   0.8413 B( 12-O , 14-C ) :   0.9209
B( 14-C , 15-H ) :   0.9378 B( 14-C , 16-H ) :   0.9364 B( 14-C , 17-H ) :   0.9405

MP2 TOTAL ENERGY:     -346.525384238 Eh
FINAL SINGLE POINT ENERGY      -346.525384238175

DIPOLE MOMENT
-------------
                                X             Y             Z
Electronic contribution:     -1.80913       1.09235       3.41657
Nuclear contribution   :      3.39715      -1.69195      -4.01744
                        -----------------------------------------
Total Dipole Moment    :      1.58801      -0.59960      -0.60087
                        -----------------------------------------
Magnitude (a.u.)       :      1.80065
Magnitude (Debye)      :      4.57690

Rotational constants in cm-1:     0.109641     0.016885     0.015261
Rotational constants in MHz :  3286.962297   506.204088   457.523352

                             ****ORCA TERMINATED NORMALLY****
TOTAL RUN TIME: 0 days 0 hours 0 minutes 58 seconds 45 msec
