                         Program Version 4.2.0 -  RELEASE  -
|  1> # 12h2o.su.etal.mol5,6,7,11
|  2> ! MP2 def2-TZVP EnGrad TightSCF
|  3>
|  4> %pal
|  5>     nprocs 6
|  6> end
|  7>
|  8> %maxcore 8000
|  9>
| 10> %scf
| 11>     ConvForced true
| 12> end
| 13>
| 14> *xyz 0 1
| 15> O   0.885520000  -1.737840000   0.052730000
| 16> H   1.284090000  -0.839590000   0.017130000
| 17> H   1.032320000  -2.090180000  -0.841890000
| 18> O   1.737840000   0.885520000  -0.052730000
| 19> H   2.090180000   1.032320000   0.841890000
| 20> H   0.839590000   1.284090000  -0.017130000
| 21> O  -1.737840000  -0.885520000  -0.052730000
| 22> H  -2.090180000  -1.032320000   0.841890000
| 23> H  -0.839590000  -1.284090000  -0.017130000
| 24> O  -0.741530000   1.752130000   2.896280000
| 25> H  -0.920500000   2.036450000   1.984040000
| 26> H  -1.242140000   0.921210000   2.984230000
| 27> *
| 28>
| 29>                          ****END OF INPUT****

CARTESIAN COORDINATES (ANGSTROEM)
---------------------------------
  O      0.885520   -1.737840    0.052730
  H      1.284090   -0.839590    0.017130
  H      1.032320   -2.090180   -0.841890
  O      1.737840    0.885520   -0.052730
  H      2.090180    1.032320    0.841890
  H      0.839590    1.284090   -0.017130
  O     -1.737840   -0.885520   -0.052730
  H     -2.090180   -1.032320    0.841890
  H     -0.839590   -1.284090   -0.017130
  O     -0.741530    1.752130    2.896280
  H     -0.920500    2.036450    1.984040
  H     -1.242140    0.921210    2.984230

 Total Charge           Charge          ....    0
 Multiplicity           Mult            ....    1
 Number of Electrons    NEL             ....   40
 Basis Dimension        Dim             ....  172

ORBITAL ENERGIES
----------------

  NO   OCC          E(Eh)            E(eV)
   0   2.0000     -20.603936      -560.6616
   1   2.0000     -20.578092      -559.9583
   2   2.0000     -20.564972      -559.6013
   3   2.0000     -20.538275      -558.8749
   4   2.0000      -1.385225       -37.6939
   5   2.0000      -1.357011       -36.9261
   6   2.0000      -1.350673       -36.7537
   7   2.0000      -1.318158       -35.8689
   8   2.0000      -0.742011       -20.1912
   9   2.0000      -0.720148       -19.5962
  10   2.0000      -0.719380       -19.5753
  11   2.0000      -0.692332       -18.8393
  12   2.0000      -0.627687       -17.0802
  13   2.0000      -0.597105       -16.2481
  14   2.0000      -0.594455       -16.1759
  15   2.0000      -0.566005       -15.4018
  16   2.0000      -0.536927       -14.6105
  17   2.0000      -0.521826       -14.1996
  18   2.0000      -0.505500       -13.7553
  19   2.0000      -0.486159       -13.2291
  20   0.0000       0.083498         2.2721
  21   0.0000       0.132985         3.6187
  22   0.0000       0.147247         4.0068
  23   0.0000       0.169548         4.6136
  24   0.0000       0.202854         5.5199

MULLIKEN ATOMIC CHARGES
-----------------------
   0 O :   -0.712735
   1 H :    0.367896
   2 H :    0.350636
   3 O :   -0.684761
   4 H :    0.365067
   5 H :    0.356389
   6 O :   -0.717599
   7 H :    0.318447
   8 H :    0.356147
   9 O :   -0.672272
  10 H :    0.332783
  11 H :    0.340001
Sum of atomic charges:    0.0000000

LOEWDIN ATOMIC CHARGES
----------------------
   0 O :   -0.310770
   1 H :    0.145171
   2 H :    0.167998
   3 O :   -0.286380
   4 H :    0.176189
   5 H :    0.177288
   6 O :   -0.363249
   7 H :    0.152557
   8 H :    0.140949
   9 O :   -0.327927
  10 H :    0.160996
  11 H :    0.167178

  Mayer bond orders larger than 0.100000
B(  0-O ,  1-H ) :   0.7806 B(  0-O ,  2-H ) :   0.8422 B(  3-O ,  4-H ) :   0.8322
B(  3-O ,  5-H ) :   0.8316 B(  6-O ,  7-H ) :   0.8626 B(  6-O ,  8-H ) :   0.7853
B(  9-O , 10-H ) :   0.8534 B(  9-O , 11-H ) :   0.8498

MP2 TOTAL ENERGY:     -305.273881747 Eh
FINAL SINGLE POINT ENERGY      -305.273881746564

DIPOLE MOMENT
-------------
                                X             Y             Z
Electronic contribution:      0.37389       0.16282      -0.01469
Nuclear contribution   :     -0.11171      -0.00057       0.08817
                        -----------------------------------------
Total Dipole Moment    :      0.26218       0.16224       0.07348
                        -----------------------------------------
Magnitude (a.u.)       :      0.31695
Magnitude (Debye)      :      0.80563

Rotational constants in cm-1:     0.103721     0.068240     0.046958
Rotational constants in MHz :  3109.473425  2045.798131  1407.762257

                             ****ORCA TERMINATED NORMALLY****
TOTAL RUN TIME: 0 days 0 hours 0 minutes 26 seconds 795 msec
