                         Program Version 4.2.0 -  RELEASE  -
|  1> # 12h2o.su.etal.mol1,4,6,8,9,10
|  2> ! MP2 def2-TZVP EnGrad TightSCF
|  3>
|  4> %pal
|  5>     nprocs 6
|  6> end
|  7>
|  8> %maxcore 8000
|  9>
| 10> %scf
| 11>     ConvForced true
| 12> end
| 13>
| 14> *xyz 0 1
| 15> O  -1.794470000  -0.923410000   2.768350000
| 16> H  -2.338250000  -1.359750000   3.430940000
| 17> H  -0.879480000  -1.303000000   2.865760000
| 18> O  -0.885520000   1.737840000   0.052730000
| 19> H  -1.032320000   2.090180000  -0.841890000
| 20> H  -1.284090000   0.839590000   0.017130000
| 21> O   1.737840000   0.885520000  -0.052730000
| 22> H   2.090180000   1.032320000   0.841890000
| 23> H   0.839590000   1.284090000  -0.017130000
| 24> O   1.752130000   0.741530000  -2.896280000
| 25> H   2.036450000   0.920500000  -1.984040000
| 26> H   0.921210000   1.242140000  -2.984230000
| 27> O   0.741530000  -1.752130000   2.896280000
| 28> H   0.920500000  -2.036450000   1.984040000
| 29> H   1.242140000  -0.921210000   2.984230000
| 30> O  -0.923410000   1.794470000  -2.768350000
| 31> H  -1.359750000   2.338250000  -3.430940000
| 32> H  -1.303000000   0.879480000  -2.865760000
| 33> *
| 34>
| 35>                          ****END OF INPUT****

CARTESIAN COORDINATES (ANGSTROEM)
---------------------------------
  O     -1.794470   -0.923410    2.768350
  H     -2.338250   -1.359750    3.430940
  H     -0.879480   -1.303000    2.865760
  O     -0.885520    1.737840    0.052730
  H     -1.032320    2.090180   -0.841890
  H     -1.284090    0.839590    0.017130
  O      1.737840    0.885520   -0.052730
  H      2.090180    1.032320    0.841890
  H      0.839590    1.284090   -0.017130
  O      1.752130    0.741530   -2.896280
  H      2.036450    0.920500   -1.984040
  H      0.921210    1.242140   -2.984230
  O      0.741530   -1.752130    2.896280
  H      0.920500   -2.036450    1.984040
  H      1.242140   -0.921210    2.984230
  O     -0.923410    1.794470   -2.768350
  H     -1.359750    2.338250   -3.430940
  H     -1.303000    0.879480   -2.865760

 Total Charge           Charge          ....    0
 Multiplicity           Mult            ....    1
 Number of Electrons    NEL             ....   60
 Basis Dimension        Dim             ....  258

ORBITAL ENERGIES
----------------

  NO   OCC          E(Eh)            E(eV)
   0   2.0000     -20.618174      -561.0490
   1   2.0000     -20.598983      -560.5268
   2   2.0000     -20.571777      -559.7865
   3   2.0000     -20.550279      -559.2015
   4   2.0000     -20.524079      -558.4886
   5   2.0000     -20.506150      -558.0007
   6   2.0000      -1.398618       -38.0583
   7   2.0000      -1.384251       -37.6674
   8   2.0000      -1.356804       -36.9205
   9   2.0000      -1.331968       -36.2447
  10   2.0000      -1.306295       -35.5461
  11   2.0000      -1.291284       -35.1376
  12   2.0000      -0.764051       -20.7909
  13   2.0000      -0.741765       -20.1844
  14   2.0000      -0.719270       -19.5723
  15   2.0000      -0.705752       -19.2045
  16   2.0000      -0.696485       -18.9523
  17   2.0000      -0.672330       -18.2950
  18   2.0000      -0.638402       -17.3718
  19   2.0000      -0.620003       -16.8711
  20   2.0000      -0.596552       -16.2330
  21   2.0000      -0.589142       -16.0314
  22   2.0000      -0.562148       -15.2968
  23   2.0000      -0.551745       -15.0137
  24   2.0000      -0.523485       -14.2448
  25   2.0000      -0.518850       -14.1186
  26   2.0000      -0.511544       -13.9198
  27   2.0000      -0.497037       -13.5251
  28   2.0000      -0.474460       -12.9107
  29   2.0000      -0.455903       -12.4057
  30   0.0000       0.086839         2.3630
  31   0.0000       0.101158         2.7526
  32   0.0000       0.151636         4.1262
  33   0.0000       0.161405         4.3920
  34   0.0000       0.175631         4.7792

MULLIKEN ATOMIC CHARGES
-----------------------
   0 O :   -0.733536
   1 H :    0.327076
   2 H :    0.365072
   3 O :   -0.693028
   4 H :    0.375023
   5 H :    0.352909
   6 O :   -0.724466
   7 H :    0.325408
   8 H :    0.359938
   9 O :   -0.723721
  10 H :    0.369303
  11 H :    0.336249
  12 O :   -0.677542
  13 H :    0.364020
  14 H :    0.354895
  15 O :   -0.714056
  16 H :    0.367181
  17 H :    0.369274
Sum of atomic charges:   -0.0000000

LOEWDIN ATOMIC CHARGES
----------------------
   0 O :   -0.372983
   1 H :    0.149898
   2 H :    0.141723
   3 O :   -0.293814
   4 H :    0.151240
   5 H :    0.176118
   6 O :   -0.341748
   7 H :    0.156037
   8 H :    0.144533
   9 O :   -0.354855
  10 H :    0.151372
  11 H :    0.137587
  12 O :   -0.269364
  13 H :    0.176691
  14 H :    0.174002
  15 O :   -0.287111
  16 H :    0.169156
  17 H :    0.191518

  Mayer bond orders larger than 0.100000
B(  0-O ,  1-H ) :   0.8594 B(  0-O ,  2-H ) :   0.7859 B(  3-O ,  4-H ) :   0.8086
B(  3-O ,  5-H ) :   0.8343 B(  3-O ,  8-H ) :   0.1003 B(  6-O ,  7-H ) :   0.8556
B(  6-O ,  8-H ) :   0.7706 B(  9-O , 10-H ) :   0.8209 B(  9-O , 11-H ) :   0.8422
B( 12-O , 13-H ) :   0.8324 B( 12-O , 14-H ) :   0.8377 B( 15-O , 16-H ) :   0.8302
B( 15-O , 17-H ) :   0.8215

MP2 TOTAL ENERGY:     -457.915613072 Eh
FINAL SINGLE POINT ENERGY      -457.915613072041

DIPOLE MOMENT
-------------
                                X             Y             Z
Electronic contribution:      0.06287       0.06365      -0.03208
Nuclear contribution   :     -1.16782       0.03205       0.00000
                        -----------------------------------------
Total Dipole Moment    :     -1.10495       0.09570      -0.03208
                        -----------------------------------------
Magnitude (a.u.)       :      1.10955
Magnitude (Debye)      :      2.82025

Rotational constants in cm-1:     0.067077     0.021860     0.017978
Rotational constants in MHz :  2010.919827   655.354066   538.973486

                             ****ORCA TERMINATED NORMALLY****
TOTAL RUN TIME: 0 days 0 hours 1 minutes 3 seconds 310 msec
