                         Program Version 4.2.0 -  RELEASE  -
|  1> # 12h2o.su.etal.mol0,1,3,5,6,8,9,10
|  2> ! MP2 def2-TZVP EnGrad TightSCF
|  3>
|  4> %pal
|  5>     nprocs 6
|  6> end
|  7>
|  8> %maxcore 8000
|  9>
| 10> %scf
| 11>     ConvForced true
| 12> end
| 13>
| 14> *xyz 0 1
| 15> O   1.794470000   0.923410000   2.768350000
| 16> H   2.338250000   1.359750000   3.430940000
| 17> H   0.879480000   1.303000000   2.865760000
| 18> O  -1.794470000  -0.923410000   2.768350000
| 19> H  -2.338250000  -1.359750000   3.430940000
| 20> H  -0.879480000  -1.303000000   2.865760000
| 21> O  -1.752130000  -0.741530000  -2.896280000
| 22> H  -2.036450000  -0.920500000  -1.984040000
| 23> H  -0.921210000  -1.242140000  -2.984230000
| 24> O   0.885520000  -1.737840000   0.052730000
| 25> H   1.284090000  -0.839590000   0.017130000
| 26> H   1.032320000  -2.090180000  -0.841890000
| 27> O   1.737840000   0.885520000  -0.052730000
| 28> H   2.090180000   1.032320000   0.841890000
| 29> H   0.839590000   1.284090000  -0.017130000
| 30> O   1.752130000   0.741530000  -2.896280000
| 31> H   2.036450000   0.920500000  -1.984040000
| 32> H   0.921210000   1.242140000  -2.984230000
| 33> O   0.741530000  -1.752130000   2.896280000
| 34> H   0.920500000  -2.036450000   1.984040000
| 35> H   1.242140000  -0.921210000   2.984230000
| 36> O  -0.923410000   1.794470000  -2.768350000
| 37> H  -1.359750000   2.338250000  -3.430940000
| 38> H  -1.303000000   0.879480000  -2.865760000
| 39> *
| 40>
| 41>                          ****END OF INPUT****

CARTESIAN COORDINATES (ANGSTROEM)
---------------------------------
  O      1.794470    0.923410    2.768350
  H      2.338250    1.359750    3.430940
  H      0.879480    1.303000    2.865760
  O     -1.794470   -0.923410    2.768350
  H     -2.338250   -1.359750    3.430940
  H     -0.879480   -1.303000    2.865760
  O     -1.752130   -0.741530   -2.896280
  H     -2.036450   -0.920500   -1.984040
  H     -0.921210   -1.242140   -2.984230
  O      0.885520   -1.737840    0.052730
  H      1.284090   -0.839590    0.017130
  H      1.032320   -2.090180   -0.841890
  O      1.737840    0.885520   -0.052730
  H      2.090180    1.032320    0.841890
  H      0.839590    1.284090   -0.017130
  O      1.752130    0.741530   -2.896280
  H      2.036450    0.920500   -1.984040
  H      0.921210    1.242140   -2.984230
  O      0.741530   -1.752130    2.896280
  H      0.920500   -2.036450    1.984040
  H      1.242140   -0.921210    2.984230
  O     -0.923410    1.794470   -2.768350
  H     -1.359750    2.338250   -3.430940
  H     -1.303000    0.879480   -2.865760

 Total Charge           Charge          ....    0
 Multiplicity           Mult            ....    1
 Number of Electrons    NEL             ....   80
 Basis Dimension        Dim             ....  344

ORBITAL ENERGIES
----------------

  NO   OCC          E(Eh)            E(eV)
   0   2.0000     -20.629577      -561.3593
   1   2.0000     -20.596385      -560.4561
   2   2.0000     -20.594247      -560.3980
   3   2.0000     -20.556418      -559.3686
   4   2.0000     -20.547272      -559.1197
   5   2.0000     -20.546532      -559.0996
   6   2.0000     -20.512929      -558.1852
   7   2.0000     -20.511893      -558.1570
   8   2.0000      -1.410407       -38.3791
   9   2.0000      -1.382273       -37.6136
  10   2.0000      -1.380243       -37.5583
  11   2.0000      -1.344488       -36.5854
  12   2.0000      -1.333965       -36.2990
  13   2.0000      -1.330653       -36.2089
  14   2.0000      -1.296775       -35.2870
  15   2.0000      -1.294294       -35.2195
  16   2.0000      -0.775549       -21.1038
  17   2.0000      -0.743767       -20.2389
  18   2.0000      -0.738693       -20.1008
  19   2.0000      -0.715757       -19.4767
  20   2.0000      -0.715415       -19.4674
  21   2.0000      -0.705896       -19.2084
  22   2.0000      -0.680719       -18.5233
  23   2.0000      -0.676295       -18.4029
  24   2.0000      -0.652149       -17.7459
  25   2.0000      -0.624737       -16.9999
  26   2.0000      -0.615524       -16.7493
  27   2.0000      -0.606632       -16.5073
  28   2.0000      -0.581017       -15.8103
  29   2.0000      -0.571360       -15.5475
  30   2.0000      -0.564097       -15.3499
  31   2.0000      -0.540820       -14.7165
  32   2.0000      -0.535133       -14.5617
  33   2.0000      -0.528889       -14.3918
  34   2.0000      -0.523299       -14.2397
  35   2.0000      -0.505701       -13.7608
  36   2.0000      -0.493101       -13.4179
  37   2.0000      -0.485711       -13.2169
  38   2.0000      -0.463879       -12.6228
  39   2.0000      -0.461985       -12.5712
  40   0.0000       0.082115         2.2345
  41   0.0000       0.105051         2.8586
  42   0.0000       0.146345         3.9823
  43   0.0000       0.155303         4.2260
  44   0.0000       0.167748         4.5647

MULLIKEN ATOMIC CHARGES
-----------------------
   0 O :   -0.725662
   1 H :    0.371719
   2 H :    0.380058
   3 O :   -0.746483
   4 H :    0.323301
   5 H :    0.369621
   6 O :   -0.687727
   7 H :    0.369254
   8 H :    0.362291
   9 O :   -0.729398
  10 H :    0.362163
  11 H :    0.339306
  12 O :   -0.722281
  13 H :    0.384813
  14 H :    0.363532
  15 O :   -0.735937
  16 H :    0.362950
  17 H :    0.350738
  18 O :   -0.714638
  19 H :    0.387434
  20 H :    0.355341
  21 O :   -0.741408
  22 H :    0.341124
  23 H :    0.379890
Sum of atomic charges:   -0.0000000

LOEWDIN ATOMIC CHARGES
----------------------
   0 O :   -0.288411
   1 H :    0.171635
   2 H :    0.195765
   3 O :   -0.380419
   4 H :    0.147197
   5 H :    0.141361
   6 O :   -0.269452
   7 H :    0.178785
   8 H :    0.175768
   9 O :   -0.339132
  10 H :    0.144313
  11 H :    0.162311
  12 O :   -0.280670
  13 H :    0.154886
  14 H :    0.180374
  15 O :   -0.357945
  16 H :    0.145716
  17 H :    0.142232
  18 O :   -0.287012
  19 H :    0.158585
  20 H :    0.144921
  21 O :   -0.341939
  22 H :    0.155830
  23 H :    0.145299

  Mayer bond orders larger than 0.100000
B(  0-O ,  1-H ) :   0.8280 B(  0-O ,  2-H ) :   0.8123 B(  3-O ,  4-H ) :   0.8615
B(  3-O ,  5-H ) :   0.7683 B(  5-H , 18-O ) :   0.1038 B(  6-O ,  7-H ) :   0.8292
B(  6-O ,  8-H ) :   0.8298 B(  9-O , 10-H ) :   0.7782 B(  9-O , 11-H ) :   0.8477
B( 12-O , 13-H ) :   0.7983 B( 12-O , 14-H ) :   0.8253 B( 15-O , 16-H ) :   0.8306
B( 15-O , 17-H ) :   0.8144 B( 18-O , 19-H ) :   0.7995 B( 18-O , 20-H ) :   0.8226
B( 21-O , 22-H ) :   0.8486 B( 21-O , 23-H ) :   0.7632

MP2 TOTAL ENERGY:     -610.575305680 Eh
FINAL SINGLE POINT ENERGY      -610.575305680254

DIPOLE MOMENT
-------------
                                X             Y             Z
Electronic contribution:      0.23548      -0.09684      -0.08470
Nuclear contribution   :     -0.11394       1.05433       1.31870
                        -----------------------------------------
Total Dipole Moment    :      0.12153       0.95748       1.23400
                        -----------------------------------------
Magnitude (a.u.)       :      1.56662
Magnitude (Debye)      :      3.98203

Rotational constants in cm-1:     0.034465     0.015688     0.013307
Rotational constants in MHz :  1033.233076   470.299984   398.943303

                             ****ORCA TERMINATED NORMALLY****
TOTAL RUN TIME: 0 days 0 hours 2 minutes 50 seconds 422 msec
