                         Program Version 4.2.0 -  RELEASE  -
|  1> # 12h2o.su.etal.mol5,11
|  2> ! MP2 def2-TZVP EnGrad TightSCF
|  3>
|  4> %pal
|  5>     nprocs 6
|  6> end
|  7>
|  8> %maxcore 8000
|  9>
| 10> %scf
| 11>     ConvForced true
| 12> end
| 13>
| 14> *xyz 0 1
| 15> O   0.885520000  -1.737840000   0.052730000
| 16> H   1.284090000  -0.839590000   0.017130000
| 17> H   1.032320000  -2.090180000  -0.841890000
| 18> O  -0.741530000   1.752130000   2.896280000
| 19> H  -0.920500000   2.036450000   1.984040000
| 20> H  -1.242140000   0.921210000   2.984230000
| 21> *
| 22>
| 23>                          ****END OF INPUT****

CARTESIAN COORDINATES (ANGSTROEM)
---------------------------------
  O      0.885520   -1.737840    0.052730
  H      1.284090   -0.839590    0.017130
  H      1.032320   -2.090180   -0.841890
  O     -0.741530    1.752130    2.896280
  H     -0.920500    2.036450    1.984040
  H     -1.242140    0.921210    2.984230

 Total Charge           Charge          ....    0
 Multiplicity           Mult            ....    1
 Number of Electrons    NEL             ....   20
 Basis Dimension        Dim             ....   86

ORBITAL ENERGIES
----------------

  NO   OCC          E(Eh)            E(eV)
   0   2.0000     -20.567414      -559.6678
   1   2.0000     -20.560791      -559.4876
   2   2.0000      -1.343425       -36.5565
   3   2.0000      -1.340008       -36.4635
   4   2.0000      -0.705487       -19.1973
   5   2.0000      -0.702841       -19.1253
   6   2.0000      -0.582644       -15.8546
   7   2.0000      -0.577539       -15.7156
   8   2.0000      -0.510308       -13.8862
   9   2.0000      -0.504874       -13.7383
  10   0.0000       0.110295         3.0013
  11   0.0000       0.139294         3.7904
  12   0.0000       0.191257         5.2044
  13   0.0000       0.205965         5.6046
  14   0.0000       0.506269        13.7763

MULLIKEN ATOMIC CHARGES
-----------------------
   0 O :   -0.675826
   1 H :    0.338535
   2 H :    0.336915
   3 O :   -0.675290
   4 H :    0.334289
   5 H :    0.341378
Sum of atomic charges:    0.0000000

LOEWDIN ATOMIC CHARGES
----------------------
   0 O :   -0.337903
   1 H :    0.172463
   2 H :    0.165171
   3 O :   -0.332406
   4 H :    0.164119
   5 H :    0.168556

  Mayer bond orders larger than 0.100000
B(  0-O ,  1-H ) :   0.8502 B(  0-O ,  2-H ) :   0.8532 B(  3-O ,  4-H ) :   0.8550
B(  3-O ,  5-H ) :   0.8505

MP2 TOTAL ENERGY:     -152.626157431 Eh
FINAL SINGLE POINT ENERGY      -152.626157430529

DIPOLE MOMENT
-------------
                                X             Y             Z
Electronic contribution:      0.01716      -0.01198       0.24148
Nuclear contribution   :     -0.11171      -0.00057      -1.46039
                        -----------------------------------------
Total Dipole Moment    :     -0.09455      -0.01255      -1.21890
                        -----------------------------------------
Magnitude (a.u.)       :      1.22263
Magnitude (Debye)      :      3.10768

Rotational constants in cm-1:     6.630126     0.081533     0.081080
Rotational constants in MHz : 198766.168603  2444.285672  2430.721760

                             ****ORCA TERMINATED NORMALLY****
TOTAL RUN TIME: 0 days 0 hours 0 minutes 21 seconds 319 msec
