                         Program Version 4.2.0 -  RELEASE  -
|  1> # 12h2o.su.etal.mol0,1,2,4,5,6,10,11
|  2> ! MP2 def2-TZVP EnGrad TightSCF
|  3>
|  4> %pal
|  5>     nprocs 6
|  6> end
|  7>
|  8> %maxcore 8000
|  9>
| 10> %scf
| 11>     ConvForced true
| 12> end
| 13>
| 14> *xyz 0 1
| 15> O   1.794470000   0.923410000   2.768350000
| 16> H   2.338250000   1.359750000   3.430940000
| 17> H   0.879480000   1.303000000   2.865760000
| 18> O  -1.794470000  -0.923410000   2.768350000
| 19> H  -2.338250000  -1.359750000   3.430940000
| 20> H  -0.879480000  -1.303000000   2.865760000
| 21> O   0.923410000  -1.794470000  -2.768350000
| 22> H   1.359750000  -2.338250000  -3.430940000
| 23> H   1.303000000  -0.879480000  -2.865760000
| 24> O  -0.885520000   1.737840000   0.052730000
| 25> H  -1.032320000   2.090180000  -0.841890000
| 26> H  -1.284090000   0.839590000   0.017130000
| 27> O   0.885520000  -1.737840000   0.052730000
| 28> H   1.284090000  -0.839590000   0.017130000
| 29> H   1.032320000  -2.090180000  -0.841890000
| 30> O   1.737840000   0.885520000  -0.052730000
| 31> H   2.090180000   1.032320000   0.841890000
| 32> H   0.839590000   1.284090000  -0.017130000
| 33> O  -0.923410000   1.794470000  -2.768350000
| 34> H  -1.359750000   2.338250000  -3.430940000
| 35> H  -1.303000000   0.879480000  -2.865760000
| 36> O  -0.741530000   1.752130000   2.896280000
| 37> H  -0.920500000   2.036450000   1.984040000
| 38> H  -1.242140000   0.921210000   2.984230000
| 39> *
| 40>
| 41>                          ****END OF INPUT****

CARTESIAN COORDINATES (ANGSTROEM)
---------------------------------
  O      1.794470    0.923410    2.768350
  H      2.338250    1.359750    3.430940
  H      0.879480    1.303000    2.865760
  O     -1.794470   -0.923410    2.768350
  H     -2.338250   -1.359750    3.430940
  H     -0.879480   -1.303000    2.865760
  O      0.923410   -1.794470   -2.768350
  H      1.359750   -2.338250   -3.430940
  H      1.303000   -0.879480   -2.865760
  O     -0.885520    1.737840    0.052730
  H     -1.032320    2.090180   -0.841890
  H     -1.284090    0.839590    0.017130
  O      0.885520   -1.737840    0.052730
  H      1.284090   -0.839590    0.017130
  H      1.032320   -2.090180   -0.841890
  O      1.737840    0.885520   -0.052730
  H      2.090180    1.032320    0.841890
  H      0.839590    1.284090   -0.017130
  O     -0.923410    1.794470   -2.768350
  H     -1.359750    2.338250   -3.430940
  H     -1.303000    0.879480   -2.865760
  O     -0.741530    1.752130    2.896280
  H     -0.920500    2.036450    1.984040
  H     -1.242140    0.921210    2.984230

 Total Charge           Charge          ....    0
 Multiplicity           Mult            ....    1
 Number of Electrons    NEL             ....   80
 Basis Dimension        Dim             ....  344

ORBITAL ENERGIES
----------------

  NO   OCC          E(Eh)            E(eV)
   0   2.0000     -20.602817      -560.6312
   1   2.0000     -20.579768      -560.0040
   2   2.0000     -20.578218      -559.9618
   3   2.0000     -20.576310      -559.9099
   4   2.0000     -20.542375      -558.9864
   5   2.0000     -20.523587      -558.4752
   6   2.0000     -20.510812      -558.1276
   7   2.0000     -20.481598      -557.3326
   8   2.0000      -1.382025       -37.6068
   9   2.0000      -1.365086       -37.1459
  10   2.0000      -1.356497       -36.9122
  11   2.0000      -1.354192       -36.8494
  12   2.0000      -1.334678       -36.3184
  13   2.0000      -1.309201       -35.6252
  14   2.0000      -1.297295       -35.3012
  15   2.0000      -1.265005       -34.4225
  16   2.0000      -0.748017       -20.3546
  17   2.0000      -0.729779       -19.8583
  18   2.0000      -0.723641       -19.6913
  19   2.0000      -0.720807       -19.6141
  20   2.0000      -0.698853       -19.0168
  21   2.0000      -0.689922       -18.7737
  22   2.0000      -0.675965       -18.3940
  23   2.0000      -0.648053       -17.6344
  24   2.0000      -0.629776       -17.1371
  25   2.0000      -0.611170       -16.6308
  26   2.0000      -0.594385       -16.1740
  27   2.0000      -0.589957       -16.0536
  28   2.0000      -0.575184       -15.6516
  29   2.0000      -0.566688       -15.4204
  30   2.0000      -0.545597       -14.8464
  31   2.0000      -0.539157       -14.6712
  32   2.0000      -0.530875       -14.4458
  33   2.0000      -0.517446       -14.0804
  34   2.0000      -0.510709       -13.8971
  35   2.0000      -0.497968       -13.5504
  36   2.0000      -0.484867       -13.1939
  37   2.0000      -0.471808       -12.8386
  38   2.0000      -0.454050       -12.3553
  39   2.0000      -0.432879       -11.7792
  40   0.0000       0.092312         2.5119
  41   0.0000       0.124214         3.3800
  42   0.0000       0.132252         3.5988
  43   0.0000       0.163361         4.4453
  44   0.0000       0.169066         4.6005

MULLIKEN ATOMIC CHARGES
-----------------------
   0 O :   -0.737784
   1 H :    0.329794
   2 H :    0.369282
   3 O :   -0.708717
   4 H :    0.350035
   5 H :    0.382642
   6 O :   -0.702213
   7 H :    0.345091
   8 H :    0.363646
   9 O :   -0.733368
  10 H :    0.386144
  11 H :    0.363260
  12 O :   -0.749692
  13 H :    0.350142
  14 H :    0.351101
  15 O :   -0.737255
  16 H :    0.374631
  17 H :    0.356722
  18 O :   -0.699984
  19 H :    0.355996
  20 H :    0.362602
  21 O :   -0.718786
  22 H :    0.381776
  23 H :    0.364936
Sum of atomic charges:    0.0000000

LOEWDIN ATOMIC CHARGES
----------------------
   0 O :   -0.342636
   1 H :    0.150254
   2 H :    0.143134
   3 O :   -0.313179
   4 H :    0.162826
   5 H :    0.196401
   6 O :   -0.314819
   7 H :    0.159998
   8 H :    0.187196
   9 O :   -0.285046
  10 H :    0.156852
  11 H :    0.178828
  12 O :   -0.378803
  13 H :    0.135984
  14 H :    0.140360
  15 O :   -0.323686
  16 H :    0.149169
  17 H :    0.137793
  18 O :   -0.309701
  19 H :    0.165612
  20 H :    0.188247
  21 O :   -0.288408
  22 H :    0.154314
  23 H :    0.149308

  Mayer bond orders larger than 0.100000
B(  0-O ,  1-H ) :   0.8542 B(  0-O ,  2-H ) :   0.7519 B(  2-H , 21-O ) :   0.1104
B(  3-O ,  4-H ) :   0.8429 B(  3-O ,  5-H ) :   0.8124 B(  6-O ,  7-H ) :   0.8452
B(  6-O ,  8-H ) :   0.8259 B(  9-O , 10-H ) :   0.7941 B(  9-O , 11-H ) :   0.8223
B( 12-O , 13-H ) :   0.7879 B( 12-O , 14-H ) :   0.8352 B( 13-H , 15-O ) :   0.1006
B( 15-O , 16-H ) :   0.8012 B( 15-O , 17-H ) :   0.7986 B( 18-O , 19-H ) :   0.8396
B( 18-O , 20-H ) :   0.8270 B( 21-O , 22-H ) :   0.8088 B( 21-O , 23-H ) :   0.8031

MP2 TOTAL ENERGY:     -610.575796043 Eh
FINAL SINGLE POINT ENERGY      -610.575796042507

DIPOLE MOMENT
-------------
                                X             Y             Z
Electronic contribution:     -0.34623       0.20913      -0.07912
Nuclear contribution   :     -1.02005      -0.00102      -1.46039
                        -----------------------------------------
Total Dipole Moment    :     -1.36628       0.20811      -1.53951
                        -----------------------------------------
Magnitude (a.u.)       :      2.06884
Magnitude (Debye)      :      5.25858

Rotational constants in cm-1:     0.031505     0.018095     0.016123
Rotational constants in MHz :   944.482581   542.466239   483.340460

                             ****ORCA TERMINATED NORMALLY****
TOTAL RUN TIME: 0 days 0 hours 2 minutes 41 seconds 761 msec
