                         Program Version 4.2.0 -  RELEASE  -
|  1> # 12h2o.su.etal.mol0,2,5,6,7,8,10
|  2> ! MP2 def2-TZVP EnGrad TightSCF
|  3>
|  4> %pal
|  5>     nprocs 6
|  6> end
|  7>
|  8> %maxcore 8000
|  9>
| 10> %scf
| 11>     ConvForced true
| 12> end
| 13>
| 14> *xyz 0 1
| 15> O   1.794470000   0.923410000   2.768350000
| 16> H   2.338250000   1.359750000   3.430940000
| 17> H   0.879480000   1.303000000   2.865760000
| 18> O   0.923410000  -1.794470000  -2.768350000
| 19> H   1.359750000  -2.338250000  -3.430940000
| 20> H   1.303000000  -0.879480000  -2.865760000
| 21> O   0.885520000  -1.737840000   0.052730000
| 22> H   1.284090000  -0.839590000   0.017130000
| 23> H   1.032320000  -2.090180000  -0.841890000
| 24> O   1.737840000   0.885520000  -0.052730000
| 25> H   2.090180000   1.032320000   0.841890000
| 26> H   0.839590000   1.284090000  -0.017130000
| 27> O  -1.737840000  -0.885520000  -0.052730000
| 28> H  -2.090180000  -1.032320000   0.841890000
| 29> H  -0.839590000  -1.284090000  -0.017130000
| 30> O   1.752130000   0.741530000  -2.896280000
| 31> H   2.036450000   0.920500000  -1.984040000
| 32> H   0.921210000   1.242140000  -2.984230000
| 33> O  -0.923410000   1.794470000  -2.768350000
| 34> H  -1.359750000   2.338250000  -3.430940000
| 35> H  -1.303000000   0.879480000  -2.865760000
| 36> *
| 37>
| 38>                          ****END OF INPUT****

CARTESIAN COORDINATES (ANGSTROEM)
---------------------------------
  O      1.794470    0.923410    2.768350
  H      2.338250    1.359750    3.430940
  H      0.879480    1.303000    2.865760
  O      0.923410   -1.794470   -2.768350
  H      1.359750   -2.338250   -3.430940
  H      1.303000   -0.879480   -2.865760
  O      0.885520   -1.737840    0.052730
  H      1.284090   -0.839590    0.017130
  H      1.032320   -2.090180   -0.841890
  O      1.737840    0.885520   -0.052730
  H      2.090180    1.032320    0.841890
  H      0.839590    1.284090   -0.017130
  O     -1.737840   -0.885520   -0.052730
  H     -2.090180   -1.032320    0.841890
  H     -0.839590   -1.284090   -0.017130
  O      1.752130    0.741530   -2.896280
  H      2.036450    0.920500   -1.984040
  H      0.921210    1.242140   -2.984230
  O     -0.923410    1.794470   -2.768350
  H     -1.359750    2.338250   -3.430940
  H     -1.303000    0.879480   -2.865760

 Total Charge           Charge          ....    0
 Multiplicity           Mult            ....    1
 Number of Electrons    NEL             ....   70
 Basis Dimension        Dim             ....  301

ORBITAL ENERGIES
----------------

  NO   OCC          E(Eh)            E(eV)
   0   2.0000     -20.602514      -560.6229
   1   2.0000     -20.584056      -560.1206
   2   2.0000     -20.583281      -560.0995
   3   2.0000     -20.545844      -559.0808
   4   2.0000     -20.526870      -558.5645
   5   2.0000     -20.513424      -558.1986
   6   2.0000     -20.512105      -558.1627
   7   2.0000      -1.382226       -37.6123
   8   2.0000      -1.368019       -37.2257
   9   2.0000      -1.362163       -37.0663
  10   2.0000      -1.338249       -36.4156
  11   2.0000      -1.312898       -35.7258
  12   2.0000      -1.303082       -35.4587
  13   2.0000      -1.288505       -35.0620
  14   2.0000      -0.747981       -20.3536
  15   2.0000      -0.732883       -19.9428
  16   2.0000      -0.729348       -19.8466
  17   2.0000      -0.702566       -19.1178
  18   2.0000      -0.693268       -18.8648
  19   2.0000      -0.678396       -18.4601
  20   2.0000      -0.664625       -18.0854
  21   2.0000      -0.631810       -17.1924
  22   2.0000      -0.613106       -16.6835
  23   2.0000      -0.597999       -16.2724
  24   2.0000      -0.578341       -15.7375
  25   2.0000      -0.571172       -15.5424
  26   2.0000      -0.548080       -14.9140
  27   2.0000      -0.542692       -14.7674
  28   2.0000      -0.534565       -14.5462
  29   2.0000      -0.522359       -14.2141
  30   2.0000      -0.510981       -13.9045
  31   2.0000      -0.488334       -13.2882
  32   2.0000      -0.475161       -12.9298
  33   2.0000      -0.463658       -12.6168
  34   2.0000      -0.457350       -12.4451
  35   0.0000       0.092278         2.5110
  36   0.0000       0.119109         3.2411
  37   0.0000       0.152999         4.1633
  38   0.0000       0.163586         4.4514
  39   0.0000       0.181318         4.9339

MULLIKEN ATOMIC CHARGES
-----------------------
   0 O :   -0.692026
   1 H :    0.356135
   2 H :    0.356086
   3 O :   -0.739944
   4 H :    0.331376
   5 H :    0.369321
   6 O :   -0.732422
   7 H :    0.357995
   8 H :    0.374466
   9 O :   -0.732582
  10 H :    0.387738
  11 H :    0.359568
  12 O :   -0.731123
  13 H :    0.318168
  14 H :    0.364834
  15 O :   -0.718443
  16 H :    0.382507
  17 H :    0.364720
  18 O :   -0.709312
  19 H :    0.351745
  20 H :    0.381193
Sum of atomic charges:   -0.0000000

LOEWDIN ATOMIC CHARGES
----------------------
   0 O :   -0.307166
   1 H :    0.165619
   2 H :    0.186760
   3 O :   -0.343558
   4 H :    0.150968
   5 H :    0.143020
   6 O :   -0.319504
   7 H :    0.138321
   8 H :    0.148930
   9 O :   -0.284627
  10 H :    0.157543
  11 H :    0.177092
  12 O :   -0.370975
  13 H :    0.153383
  14 H :    0.142482
  15 O :   -0.287927
  16 H :    0.154511
  17 H :    0.149146
  18 O :   -0.313460
  19 H :    0.163594
  20 H :    0.195846

  Mayer bond orders larger than 0.100000
B(  0-O ,  1-H ) :   0.8398 B(  0-O ,  2-H ) :   0.8335 B(  3-O ,  4-H ) :   0.8534
B(  3-O ,  5-H ) :   0.7519 B(  5-H , 15-O ) :   0.1103 B(  6-O ,  7-H ) :   0.7987
B(  6-O ,  8-H ) :   0.8012 B(  6-O , 14-H ) :   0.1102 B(  9-O , 10-H ) :   0.7921
B(  9-O , 11-H ) :   0.8253 B( 12-O , 13-H ) :   0.8631 B( 12-O , 14-H ) :   0.7721
B( 15-O , 16-H ) :   0.8084 B( 15-O , 17-H ) :   0.8040 B( 18-O , 19-H ) :   0.8420
B( 18-O , 20-H ) :   0.8136

MP2 TOTAL ENERGY:     -534.255976945 Eh
FINAL SINGLE POINT ENERGY      -534.255976945158

DIPOLE MOMENT
-------------
                                X             Y             Z
Electronic contribution:      0.33211       0.22904       0.04079
Nuclear contribution   :     -0.31000       1.69920       0.82779
                        -----------------------------------------
Total Dipole Moment    :      0.02211       1.92824       0.86858
                        -----------------------------------------
Magnitude (a.u.)       :      2.11495
Magnitude (Debye)      :      5.37578

Rotational constants in cm-1:     0.039140     0.023908     0.022550
Rotational constants in MHz :  1173.374582   716.729111   676.024514

                             ****ORCA TERMINATED NORMALLY****
TOTAL RUN TIME: 0 days 0 hours 2 minutes 41 seconds 129 msec
