                         Program Version 4.2.0 -  RELEASE  -
|  1> # 12meoh.boyd.etal.mol5,7
|  2> ! MP2 def2-TZVP EnGrad TightSCF
|  3>
|  4> %pal
|  5>     nprocs 6
|  6> end
|  7>
|  8> %maxcore 8000
|  9>
| 10> %scf
| 11>     ConvForced true
| 12> end
| 13>
| 14> *xyz 0 1
| 15> O  -0.662721750   1.449094618  -1.383082065
| 16> H   0.064188300   2.119867608  -1.465650660
| 17> C  -0.353319239   0.341218776  -2.229326771
| 18> H  -1.072358530  -0.454743281  -2.019906495
| 19> H   0.657636746  -0.044472139  -2.042736771
| 20> H  -0.434616607   0.624733901  -3.287793021
| 21> O   4.310535586  -1.588322800   0.656128299
| 22> H   3.804372199  -1.630404735  -0.196849819
| 23> C   4.312298137  -2.894980854   1.222112691
| 24> H   4.713177833  -2.819907076   2.237066773
| 25> H   4.957796734  -3.574699304   0.648211180
| 26> H   3.302735989  -3.324433205   1.269756773
| 27> *
| 28>
| 29>                          ****END OF INPUT****

CARTESIAN COORDINATES (ANGSTROEM)
---------------------------------
  O     -0.662722    1.449095   -1.383082
  H      0.064188    2.119868   -1.465651
  C     -0.353319    0.341219   -2.229327
  H     -1.072359   -0.454743   -2.019906
  H      0.657637   -0.044472   -2.042737
  H     -0.434617    0.624734   -3.287793
  O      4.310536   -1.588323    0.656128
  H      3.804372   -1.630405   -0.196850
  C      4.312298   -2.894981    1.222113
  H      4.713178   -2.819907    2.237067
  H      4.957797   -3.574699    0.648211
  H      3.302736   -3.324433    1.269757

 Total Charge           Charge          ....    0
 Multiplicity           Mult            ....    1
 Number of Electrons    NEL             ....   36
 Basis Dimension        Dim             ....  172

ORBITAL ENERGIES
----------------

  NO   OCC          E(Eh)            E(eV)
   0   2.0000     -20.559172      -559.4435
   1   2.0000     -20.558007      -559.4118
   2   2.0000     -11.274705      -306.8003
   3   2.0000     -11.272964      -306.7530
   4   2.0000      -1.348798       -36.7027
   5   2.0000      -1.346338       -36.6357
   6   2.0000      -0.922497       -25.1024
   7   2.0000      -0.920961       -25.0606
   8   2.0000      -0.683507       -18.5992
   9   2.0000      -0.682324       -18.5670
  10   2.0000      -0.618945       -16.8424
  11   2.0000      -0.618405       -16.8276
  12   2.0000      -0.592357       -16.1189
  13   2.0000      -0.592311       -16.1176
  14   2.0000      -0.502495       -13.6736
  15   2.0000      -0.502288       -13.6680
  16   2.0000      -0.451063       -12.2741
  17   2.0000      -0.450668       -12.2633
  18   0.0000       0.112092         3.0502
  19   0.0000       0.143064         3.8930
  20   0.0000       0.167386         4.5548
  21   0.0000       0.181687         4.9440
  22   0.0000       0.222886         6.0650

MULLIKEN ATOMIC CHARGES
-----------------------
   0 O :   -0.497245
   1 H :    0.322774
   2 C :   -0.169635
   3 H :    0.130427
   4 H :    0.102036
   5 H :    0.111584
   6 O :   -0.495464
   7 H :    0.319704
   8 C :   -0.174812
   9 H :    0.130098
  10 H :    0.109257
  11 H :    0.111276
Sum of atomic charges:    0.0000000

LOEWDIN ATOMIC CHARGES
----------------------
   0 O :   -0.111581
   1 H :    0.189402
   2 C :   -0.377330
   3 H :    0.110040
   4 H :    0.093430
   5 H :    0.096050
   6 O :   -0.109221
   7 H :    0.188477
   8 C :   -0.380980
   9 H :    0.110397
  10 H :    0.095332
  11 H :    0.095982

  Mayer bond orders larger than 0.100000
B(  0-O ,  1-H ) :   0.8419 B(  0-O ,  2-C ) :   0.9277 B(  2-C ,  3-H ) :   0.9374
B(  2-C ,  4-H ) :   0.9398 B(  2-C ,  5-H ) :   0.9392 B(  6-O ,  7-H ) :   0.8440
B(  6-O ,  8-C ) :   0.9255 B(  8-C ,  9-H ) :   0.9376 B(  8-C , 10-H ) :   0.9384
B(  8-C , 11-H ) :   0.9400

MP2 TOTAL ENERGY:     -231.013074256 Eh
FINAL SINGLE POINT ENERGY      -231.013074255810

DIPOLE MOMENT
-------------
                                X             Y             Z
Electronic contribution:     -0.45622       3.00482       0.52805
Nuclear contribution   :      0.70945      -3.59579      -1.20260
                        -----------------------------------------
Total Dipole Moment    :      0.25323      -0.59097      -0.67455
                        -----------------------------------------
Magnitude (a.u.)       :      0.93187
Magnitude (Debye)      :      2.36863

Rotational constants in cm-1:     0.505466     0.025240     0.024806
Rotational constants in MHz : 15153.483776   756.683752   743.676970

                             ****ORCA TERMINATED NORMALLY****
TOTAL RUN TIME: 0 days 0 hours 0 minutes 18 seconds 436 msec
