                         Program Version 4.2.0 -  RELEASE  -
|  1> # 12h2o.su.etal.mol0,3,4,5,6,7,9,10
|  2> ! MP2 def2-TZVP EnGrad TightSCF
|  3>
|  4> %pal
|  5>     nprocs 6
|  6> end
|  7>
|  8> %maxcore 8000
|  9>
| 10> %scf
| 11>     ConvForced true
| 12> end
| 13>
| 14> *xyz 0 1
| 15> O   1.794470000   0.923410000   2.768350000
| 16> H   2.338250000   1.359750000   3.430940000
| 17> H   0.879480000   1.303000000   2.865760000
| 18> O  -1.752130000  -0.741530000  -2.896280000
| 19> H  -2.036450000  -0.920500000  -1.984040000
| 20> H  -0.921210000  -1.242140000  -2.984230000
| 21> O  -0.885520000   1.737840000   0.052730000
| 22> H  -1.032320000   2.090180000  -0.841890000
| 23> H  -1.284090000   0.839590000   0.017130000
| 24> O   0.885520000  -1.737840000   0.052730000
| 25> H   1.284090000  -0.839590000   0.017130000
| 26> H   1.032320000  -2.090180000  -0.841890000
| 27> O   1.737840000   0.885520000  -0.052730000
| 28> H   2.090180000   1.032320000   0.841890000
| 29> H   0.839590000   1.284090000  -0.017130000
| 30> O  -1.737840000  -0.885520000  -0.052730000
| 31> H  -2.090180000  -1.032320000   0.841890000
| 32> H  -0.839590000  -1.284090000  -0.017130000
| 33> O   0.741530000  -1.752130000   2.896280000
| 34> H   0.920500000  -2.036450000   1.984040000
| 35> H   1.242140000  -0.921210000   2.984230000
| 36> O  -0.923410000   1.794470000  -2.768350000
| 37> H  -1.359750000   2.338250000  -3.430940000
| 38> H  -1.303000000   0.879480000  -2.865760000
| 39> *
| 40>
| 41>                          ****END OF INPUT****

CARTESIAN COORDINATES (ANGSTROEM)
---------------------------------
  O      1.794470    0.923410    2.768350
  H      2.338250    1.359750    3.430940
  H      0.879480    1.303000    2.865760
  O     -1.752130   -0.741530   -2.896280
  H     -2.036450   -0.920500   -1.984040
  H     -0.921210   -1.242140   -2.984230
  O     -0.885520    1.737840    0.052730
  H     -1.032320    2.090180   -0.841890
  H     -1.284090    0.839590    0.017130
  O      0.885520   -1.737840    0.052730
  H      1.284090   -0.839590    0.017130
  H      1.032320   -2.090180   -0.841890
  O      1.737840    0.885520   -0.052730
  H      2.090180    1.032320    0.841890
  H      0.839590    1.284090   -0.017130
  O     -1.737840   -0.885520   -0.052730
  H     -2.090180   -1.032320    0.841890
  H     -0.839590   -1.284090   -0.017130
  O      0.741530   -1.752130    2.896280
  H      0.920500   -2.036450    1.984040
  H      1.242140   -0.921210    2.984230
  O     -0.923410    1.794470   -2.768350
  H     -1.359750    2.338250   -3.430940
  H     -1.303000    0.879480   -2.865760

 Total Charge           Charge          ....    0
 Multiplicity           Mult            ....    1
 Number of Electrons    NEL             ....   80
 Basis Dimension        Dim             ....  344

ORBITAL ENERGIES
----------------

  NO   OCC          E(Eh)            E(eV)
   0   2.0000     -20.608362      -560.7820
   1   2.0000     -20.586714      -560.1930
   2   2.0000     -20.584740      -560.1392
   3   2.0000     -20.584410      -560.1303
   4   2.0000     -20.540843      -558.9448
   5   2.0000     -20.537925      -558.8653
   6   2.0000     -20.535512      -558.7997
   7   2.0000     -20.520516      -558.3916
   8   2.0000      -1.388937       -37.7949
   9   2.0000      -1.384598       -37.6768
  10   2.0000      -1.373625       -37.3782
  11   2.0000      -1.364975       -37.1428
  12   2.0000      -1.334067       -36.3018
  13   2.0000      -1.324308       -36.0362
  14   2.0000      -1.314006       -35.7559
  15   2.0000      -1.305603       -35.5273
  16   2.0000      -0.754236       -20.5238
  17   2.0000      -0.745308       -20.2809
  18   2.0000      -0.736865       -20.0511
  19   2.0000      -0.731482       -19.9046
  20   2.0000      -0.709512       -19.3068
  21   2.0000      -0.699794       -19.0424
  22   2.0000      -0.698657       -19.0114
  23   2.0000      -0.685276       -18.6473
  24   2.0000      -0.644378       -17.5344
  25   2.0000      -0.630551       -17.1582
  26   2.0000      -0.612299       -16.6615
  27   2.0000      -0.600558       -16.3420
  28   2.0000      -0.594047       -16.1648
  29   2.0000      -0.580121       -15.7859
  30   2.0000      -0.558963       -15.2101
  31   2.0000      -0.546224       -14.8635
  32   2.0000      -0.534535       -14.5454
  33   2.0000      -0.525241       -14.2925
  34   2.0000      -0.523705       -14.2507
  35   2.0000      -0.518047       -14.0968
  36   2.0000      -0.490102       -13.3364
  37   2.0000      -0.488943       -13.3048
  38   2.0000      -0.481784       -13.1100
  39   2.0000      -0.470181       -12.7943
  40   0.0000       0.090575         2.4647
  41   0.0000       0.109122         2.9694
  42   0.0000       0.145290         3.9535
  43   0.0000       0.154834         4.2132
  44   0.0000       0.185357         5.0438

MULLIKEN ATOMIC CHARGES
-----------------------
   0 O :   -0.719362
   1 H :    0.363812
   2 H :    0.378209
   3 O :   -0.690334
   4 H :    0.390914
   5 H :    0.341743
   6 O :   -0.742072
   7 H :    0.381200
   8 H :    0.352506
   9 O :   -0.737175
  10 H :    0.375093
  11 H :    0.347715
  12 O :   -0.731517
  13 H :    0.369278
  14 H :    0.369719
  15 O :   -0.746559
  16 H :    0.370608
  17 H :    0.367905
  18 O :   -0.724914
  19 H :    0.366801
  20 H :    0.345778
  21 O :   -0.736614
  22 H :    0.335788
  23 H :    0.371476
Sum of atomic charges:    0.0000000

LOEWDIN ATOMIC CHARGES
----------------------
   0 O :   -0.288657
   1 H :    0.167640
   2 H :    0.194570
   3 O :   -0.273088
   4 H :    0.159419
   5 H :    0.167959
   6 O :   -0.322707
   7 H :    0.151621
   8 H :    0.136700
   9 O :   -0.295168
  10 H :    0.147427
  11 H :    0.164581
  12 O :   -0.314696
  13 H :    0.146274
  14 H :    0.142099
  15 O :   -0.298504
  16 H :    0.176285
  17 H :    0.144590
  18 O :   -0.353228
  19 H :    0.148127
  20 H :    0.141486
  21 O :   -0.340318
  22 H :    0.153422
  23 H :    0.144166

  Mayer bond orders larger than 0.100000
B(  0-O ,  1-H ) :   0.8321 B(  0-O ,  2-H ) :   0.8145 B(  3-O ,  4-H ) :   0.7976
B(  3-O ,  5-H ) :   0.8459 B(  6-O ,  7-H ) :   0.7955 B(  6-O ,  8-H ) :   0.7924
B(  6-O , 14-H ) :   0.1101 B(  9-O , 10-H ) :   0.7306 B(  9-O , 11-H ) :   0.8406
B(  9-O , 17-H ) :   0.1047 B( 10-H , 12-O ) :   0.1388 B( 12-O , 13-H ) :   0.8164
B( 12-O , 14-H ) :   0.7628 B( 15-O , 16-H ) :   0.8273 B( 15-O , 17-H ) :   0.7553
B( 18-O , 19-H ) :   0.8269 B( 18-O , 20-H ) :   0.8312 B( 21-O , 22-H ) :   0.8512
B( 21-O , 23-H ) :   0.7627

MP2 TOTAL ENERGY:     -610.595770030 Eh
FINAL SINGLE POINT ENERGY      -610.595770029672

DIPOLE MOMENT
-------------
                                X             Y             Z
Electronic contribution:     -0.00476      -0.05654       0.01325
Nuclear contribution   :      0.03250       0.25948       0.00000
                        -----------------------------------------
Total Dipole Moment    :      0.02774       0.20294       0.01325
                        -----------------------------------------
Magnitude (a.u.)       :      0.20525
Magnitude (Debye)      :      0.52171

Rotational constants in cm-1:     0.043496     0.019589     0.016391
Rotational constants in MHz :  1303.991607   587.260715   491.384427

                             ****ORCA TERMINATED NORMALLY****
TOTAL RUN TIME: 0 days 0 hours 3 minutes 24 seconds 632 msec
