                         Program Version 4.2.0 -  RELEASE  -
|  1> # 12h2o.su.etal.mol0,5,7,10
|  2> ! MP2 def2-TZVP EnGrad TightSCF
|  3>
|  4> %pal
|  5>     nprocs 6
|  6> end
|  7>
|  8> %maxcore 8000
|  9>
| 10> %scf
| 11>     ConvForced true
| 12> end
| 13>
| 14> *xyz 0 1
| 15> O   1.794470000   0.923410000   2.768350000
| 16> H   2.338250000   1.359750000   3.430940000
| 17> H   0.879480000   1.303000000   2.865760000
| 18> O   0.885520000  -1.737840000   0.052730000
| 19> H   1.284090000  -0.839590000   0.017130000
| 20> H   1.032320000  -2.090180000  -0.841890000
| 21> O  -1.737840000  -0.885520000  -0.052730000
| 22> H  -2.090180000  -1.032320000   0.841890000
| 23> H  -0.839590000  -1.284090000  -0.017130000
| 24> O  -0.923410000   1.794470000  -2.768350000
| 25> H  -1.359750000   2.338250000  -3.430940000
| 26> H  -1.303000000   0.879480000  -2.865760000
| 27> *
| 28>
| 29>                          ****END OF INPUT****

CARTESIAN COORDINATES (ANGSTROEM)
---------------------------------
  O      1.794470    0.923410    2.768350
  H      2.338250    1.359750    3.430940
  H      0.879480    1.303000    2.865760
  O      0.885520   -1.737840    0.052730
  H      1.284090   -0.839590    0.017130
  H      1.032320   -2.090180   -0.841890
  O     -1.737840   -0.885520   -0.052730
  H     -2.090180   -1.032320    0.841890
  H     -0.839590   -1.284090   -0.017130
  O     -0.923410    1.794470   -2.768350
  H     -1.359750    2.338250   -3.430940
  H     -1.303000    0.879480   -2.865760

 Total Charge           Charge          ....    0
 Multiplicity           Mult            ....    1
 Number of Electrons    NEL             ....   40
 Basis Dimension        Dim             ....  172

ORBITAL ENERGIES
----------------

  NO   OCC          E(Eh)            E(eV)
   0   2.0000     -20.583017      -560.0924
   1   2.0000     -20.565237      -559.6086
   2   2.0000     -20.551549      -559.2361
   3   2.0000     -20.523861      -558.4826
   4   2.0000      -1.363675       -37.1075
   5   2.0000      -1.340515       -36.4773
   6   2.0000      -1.326951       -36.1082
   7   2.0000      -1.304900       -35.5081
   8   2.0000      -0.721107       -19.6223
   9   2.0000      -0.708835       -19.2884
  10   2.0000      -0.695213       -18.9177
  11   2.0000      -0.680571       -18.5193
  12   2.0000      -0.603442       -16.4205
  13   2.0000      -0.577164       -15.7054
  14   2.0000      -0.563360       -15.3298
  15   2.0000      -0.557094       -15.1593
  16   2.0000      -0.511529       -13.9194
  17   2.0000      -0.508438       -13.8353
  18   2.0000      -0.494795       -13.4641
  19   2.0000      -0.472097       -12.8464
  20   0.0000       0.107263         2.9188
  21   0.0000       0.130213         3.5433
  22   0.0000       0.147354         4.0097
  23   0.0000       0.170948         4.6517
  24   0.0000       0.200412         5.4535

MULLIKEN ATOMIC CHARGES
-----------------------
   0 O :   -0.686466
   1 H :    0.340881
   2 H :    0.347302
   3 O :   -0.683798
   4 H :    0.371080
   5 H :    0.350713
   6 O :   -0.717013
   7 H :    0.326581
   8 H :    0.352781
   9 O :   -0.686479
  10 H :    0.334231
  11 H :    0.350187
Sum of atomic charges:   -0.0000000

LOEWDIN ATOMIC CHARGES
----------------------
   0 O :   -0.340033
   1 H :    0.159037
   2 H :    0.182808
   3 O :   -0.289798
   4 H :    0.185054
   5 H :    0.170399
   6 O :   -0.364722
   7 H :    0.158090
   8 H :    0.141178
   9 O :   -0.340858
  10 H :    0.155816
  11 H :    0.183029

  Mayer bond orders larger than 0.100000
B(  0-O ,  1-H ) :   0.8518 B(  0-O ,  2-H ) :   0.8423 B(  3-O ,  4-H ) :   0.8246
B(  3-O ,  5-H ) :   0.8415 B(  6-O ,  7-H ) :   0.8595 B(  6-O ,  8-H ) :   0.7984
B(  9-O , 10-H ) :   0.8556 B(  9-O , 11-H ) :   0.8393

MP2 TOTAL ENERGY:     -305.261470176 Eh
FINAL SINGLE POINT ENERGY      -305.261470175752

DIPOLE MOMENT
-------------
                                X             Y             Z
Electronic contribution:      0.28555      -0.11048       0.05053
Nuclear contribution   :     -0.07979       0.37062       0.00000
                        -----------------------------------------
Total Dipole Moment    :      0.20576       0.26013       0.05053
                        -----------------------------------------
Magnitude (a.u.)       :      0.33550
Magnitude (Debye)      :      0.85277

Rotational constants in cm-1:     0.085376     0.039134     0.032376
Rotational constants in MHz :  2559.512103  1173.198730   970.622677

                             ****ORCA TERMINATED NORMALLY****
TOTAL RUN TIME: 0 days 0 hours 0 minutes 15 seconds 233 msec
