                         Program Version 4.2.0 -  RELEASE  -
|  1> # 12mecn.remya.etal.2.mol2,5,9
|  2> ! MP2 def2-TZVP EnGrad TightSCF
|  3>
|  4> %pal
|  5>     nprocs 6
|  6> end
|  7>
|  8> %maxcore 8000
|  9>
| 10> %scf
| 11>     ConvForced true
| 12> end
| 13>
| 14> *xyz 0 1
| 15> C  -4.219070000  -3.477410000  -1.501740000
| 16> H  -3.251530000  -3.803540000  -1.893830000
| 17> H  -4.452920000  -2.481700000  -1.890840000
| 18> H  -4.992170000  -4.178130000  -1.824640000
| 19> C  -4.154550000  -3.418790000  -0.058340000
| 20> N  -4.091140000  -3.354840000   1.104432000
| 21> C  -1.955700000   2.515080000   1.698463000
| 22> H  -2.923830000   2.883163000   2.049269000
| 23> H  -1.154850000   3.171830000   2.050990000
| 24> H  -1.790380000   1.506115000   2.087896000
| 25> C  -1.948230000   2.482156000   0.253672000
| 26> N  -1.937550000   2.462523000  -0.913150000
| 27> C   0.923766000   4.000693000  -1.575910000
| 28> H   0.011949000   4.478423000  -1.939550000
| 29> H   0.947903000   2.966558000  -1.929960000
| 30> H   1.805950000   4.519548000  -1.956520000
| 31> C   0.942834000   3.994846000  -0.131200000
| 32> N   0.960035000   3.982544000   1.035639000
| 33> *
| 34>
| 35>                          ****END OF INPUT****

CARTESIAN COORDINATES (ANGSTROEM)
---------------------------------
  C     -4.219070   -3.477410   -1.501740
  H     -3.251530   -3.803540   -1.893830
  H     -4.452920   -2.481700   -1.890840
  H     -4.992170   -4.178130   -1.824640
  C     -4.154550   -3.418790   -0.058340
  N     -4.091140   -3.354840    1.104432
  C     -1.955700    2.515080    1.698463
  H     -2.923830    2.883163    2.049269
  H     -1.154850    3.171830    2.050990
  H     -1.790380    1.506115    2.087896
  C     -1.948230    2.482156    0.253672
  N     -1.937550    2.462523   -0.913150
  C      0.923766    4.000693   -1.575910
  H      0.011949    4.478423   -1.939550
  H      0.947903    2.966558   -1.929960
  H      1.805950    4.519548   -1.956520
  C      0.942834    3.994846   -0.131200
  N      0.960035    3.982544    1.035639

 Total Charge           Charge          ....    0
 Multiplicity           Mult            ....    1
 Number of Electrons    NEL             ....   66
 Basis Dimension        Dim             ....  333

ORBITAL ENERGIES
----------------

  NO   OCC          E(Eh)            E(eV)
   0   2.0000     -15.572827      -423.7582
   1   2.0000     -15.571498      -423.7220
   2   2.0000     -15.569766      -423.6749
   3   2.0000     -11.283853      -307.0492
   4   2.0000     -11.283455      -307.0384
   5   2.0000     -11.281535      -306.9862
   6   2.0000     -11.280191      -306.9496
   7   2.0000     -11.274228      -306.7873
   8   2.0000     -11.268825      -306.6403
   9   2.0000      -1.217589       -33.1323
  10   2.0000      -1.214701       -33.0537
  11   2.0000      -1.213012       -33.0077
  12   2.0000      -1.042662       -28.3723
  13   2.0000      -1.037099       -28.2209
  14   2.0000      -1.031973       -28.0814
  15   2.0000      -0.699612       -19.0374
  16   2.0000      -0.695124       -18.9153
  17   2.0000      -0.688830       -18.7440
  18   2.0000      -0.630648       -17.1608
  19   2.0000      -0.630583       -17.1590
  20   2.0000      -0.629902       -17.1405
  21   2.0000      -0.622305       -16.9338
  22   2.0000      -0.618256       -16.8236
  23   2.0000      -0.615136       -16.7387
  24   2.0000      -0.558707       -15.2032
  25   2.0000      -0.556096       -15.1321
  26   2.0000      -0.555617       -15.1191
  27   2.0000      -0.461729       -12.5643
  28   2.0000      -0.458365       -12.4727
  29   2.0000      -0.457819       -12.4579
  30   2.0000      -0.457613       -12.4523
  31   2.0000      -0.456422       -12.4199
  32   2.0000      -0.453113       -12.3298
  33   0.0000       0.118271         3.2183
  34   0.0000       0.127240         3.4624
  35   0.0000       0.146629         3.9900
  36   0.0000       0.171431         4.6649
  37   0.0000       0.171915         4.6780

MULLIKEN ATOMIC CHARGES
-----------------------
   0 C :   -0.280100
   1 H :    0.171894
   2 H :    0.176255
   3 H :    0.171381
   4 C :   -0.145005
   5 N :   -0.094414
   6 C :   -0.284113
   7 H :    0.166371
   8 H :    0.203121
   9 H :    0.172485
  10 C :   -0.119496
  11 N :   -0.140380
  12 C :   -0.260489
  13 H :    0.179800
  14 H :    0.174934
  15 H :    0.171798
  16 C :   -0.115789
  17 N :   -0.148255
Sum of atomic charges:    0.0000000

LOEWDIN ATOMIC CHARGES
----------------------
   0 C :   -0.283391
   1 H :    0.152915
   2 H :    0.154430
   3 H :    0.150891
   4 C :   -0.218671
   5 N :    0.043830
   6 C :   -0.281906
   7 H :    0.151166
   8 H :    0.156738
   9 H :    0.154873
  10 C :   -0.210844
  11 N :    0.029252
  12 C :   -0.283267
  13 H :    0.155743
  14 H :    0.157171
  15 H :    0.149561
  16 C :   -0.209023
  17 N :    0.030532

  Mayer bond orders larger than 0.100000
B(  0-C ,  1-H ) :   0.9161 B(  0-C ,  2-H ) :   0.9152 B(  0-C ,  3-H ) :   0.9165
B(  0-C ,  4-C ) :   0.9029 B(  4-C ,  5-N ) :   2.8388 B(  6-C ,  7-H ) :   0.9158
B(  6-C ,  8-H ) :   0.9022 B(  6-C ,  9-H ) :   0.9129 B(  6-C , 10-C ) :   0.9003
B( 10-C , 11-N ) :   2.8025 B( 12-C , 13-H ) :   0.9114 B( 12-C , 14-H ) :   0.9140
B( 12-C , 15-H ) :   0.9108 B( 12-C , 16-C ) :   0.9120 B( 16-C , 17-N ) :   2.7704

MP2 TOTAL ENERGY:     -397.459972506 Eh
FINAL SINGLE POINT ENERGY      -397.459972505588

DIPOLE MOMENT
-------------
                                X             Y             Z
Electronic contribution:      0.20534       0.08082       3.12524
Nuclear contribution   :     -0.29030      -0.11189      -4.64821
                        -----------------------------------------
Total Dipole Moment    :     -0.08496      -0.03108      -1.52297
                        -----------------------------------------
Magnitude (a.u.)       :      1.52565
Magnitude (Debye)      :      3.87790

Rotational constants in cm-1:     0.071193     0.009361     0.008788
Rotational constants in MHz :  2134.320218   280.634255   263.469964

                             ****ORCA TERMINATED NORMALLY****
TOTAL RUN TIME: 0 days 0 hours 2 minutes 59 seconds 311 msec
