                         Program Version 4.2.0 -  RELEASE  -
|  1> # 12h2o.su.etal.mol0,3,5,6,7,9,11
|  2> ! MP2 def2-TZVP EnGrad TightSCF
|  3>
|  4> %pal
|  5>     nprocs 6
|  6> end
|  7>
|  8> %maxcore 8000
|  9>
| 10> %scf
| 11>     ConvForced true
| 12> end
| 13>
| 14> *xyz 0 1
| 15> O   1.794470000   0.923410000   2.768350000
| 16> H   2.338250000   1.359750000   3.430940000
| 17> H   0.879480000   1.303000000   2.865760000
| 18> O  -1.752130000  -0.741530000  -2.896280000
| 19> H  -2.036450000  -0.920500000  -1.984040000
| 20> H  -0.921210000  -1.242140000  -2.984230000
| 21> O   0.885520000  -1.737840000   0.052730000
| 22> H   1.284090000  -0.839590000   0.017130000
| 23> H   1.032320000  -2.090180000  -0.841890000
| 24> O   1.737840000   0.885520000  -0.052730000
| 25> H   2.090180000   1.032320000   0.841890000
| 26> H   0.839590000   1.284090000  -0.017130000
| 27> O  -1.737840000  -0.885520000  -0.052730000
| 28> H  -2.090180000  -1.032320000   0.841890000
| 29> H  -0.839590000  -1.284090000  -0.017130000
| 30> O   0.741530000  -1.752130000   2.896280000
| 31> H   0.920500000  -2.036450000   1.984040000
| 32> H   1.242140000  -0.921210000   2.984230000
| 33> O  -0.741530000   1.752130000   2.896280000
| 34> H  -0.920500000   2.036450000   1.984040000
| 35> H  -1.242140000   0.921210000   2.984230000
| 36> *
| 37>
| 38>                          ****END OF INPUT****

CARTESIAN COORDINATES (ANGSTROEM)
---------------------------------
  O      1.794470    0.923410    2.768350
  H      2.338250    1.359750    3.430940
  H      0.879480    1.303000    2.865760
  O     -1.752130   -0.741530   -2.896280
  H     -2.036450   -0.920500   -1.984040
  H     -0.921210   -1.242140   -2.984230
  O      0.885520   -1.737840    0.052730
  H      1.284090   -0.839590    0.017130
  H      1.032320   -2.090180   -0.841890
  O      1.737840    0.885520   -0.052730
  H      2.090180    1.032320    0.841890
  H      0.839590    1.284090   -0.017130
  O     -1.737840   -0.885520   -0.052730
  H     -2.090180   -1.032320    0.841890
  H     -0.839590   -1.284090   -0.017130
  O      0.741530   -1.752130    2.896280
  H      0.920500   -2.036450    1.984040
  H      1.242140   -0.921210    2.984230
  O     -0.741530    1.752130    2.896280
  H     -0.920500    2.036450    1.984040
  H     -1.242140    0.921210    2.984230

 Total Charge           Charge          ....    0
 Multiplicity           Mult            ....    1
 Number of Electrons    NEL             ....   70
 Basis Dimension        Dim             ....  301

ORBITAL ENERGIES
----------------

  NO   OCC          E(Eh)            E(eV)
   0   2.0000     -20.623279      -561.1879
   1   2.0000     -20.588353      -560.2376
   2   2.0000     -20.587585      -560.2167
   3   2.0000     -20.585875      -560.1701
   4   2.0000     -20.564465      -559.5875
   5   2.0000     -20.533965      -558.7576
   6   2.0000     -20.524967      -558.5128
   7   2.0000      -1.409787       -38.3622
   8   2.0000      -1.383953       -37.6593
   9   2.0000      -1.372718       -37.3535
  10   2.0000      -1.363340       -37.0984
  11   2.0000      -1.346743       -36.6467
  12   2.0000      -1.315357       -35.7927
  13   2.0000      -1.309969       -35.6461
  14   2.0000      -0.765400       -20.8276
  15   2.0000      -0.753920       -20.5152
  16   2.0000      -0.741962       -20.1898
  17   2.0000      -0.734084       -19.9754
  18   2.0000      -0.720646       -19.6098
  19   2.0000      -0.689740       -18.7688
  20   2.0000      -0.684397       -18.6234
  21   2.0000      -0.656050       -17.8520
  22   2.0000      -0.632080       -17.1998
  23   2.0000      -0.615966       -16.7613
  24   2.0000      -0.602826       -16.4037
  25   2.0000      -0.596954       -16.2439
  26   2.0000      -0.561007       -15.2658
  27   2.0000      -0.552811       -15.0428
  28   2.0000      -0.547861       -14.9081
  29   2.0000      -0.531494       -14.4627
  30   2.0000      -0.529394       -14.4055
  31   2.0000      -0.523666       -14.2497
  32   2.0000      -0.512351       -13.9418
  33   2.0000      -0.480200       -13.0669
  34   2.0000      -0.474769       -12.9191
  35   0.0000       0.071998         1.9592
  36   0.0000       0.112106         3.0505
  37   0.0000       0.130386         3.5480
  38   0.0000       0.137525         3.7422
  39   0.0000       0.184791         5.0284

MULLIKEN ATOMIC CHARGES
-----------------------
   0 O :   -0.754669
   1 H :    0.357243
   2 H :    0.381822
   3 O :   -0.690906
   4 H :    0.373797
   5 H :    0.309618
   6 O :   -0.733221
   7 H :    0.377238
   8 H :    0.352664
   9 O :   -0.695131
  10 H :    0.384884
  11 H :    0.339681
  12 O :   -0.732865
  13 H :    0.337940
  14 H :    0.356519
  15 O :   -0.731112
  16 H :    0.368716
  17 H :    0.348756
  18 O :   -0.681112
  19 H :    0.358403
  20 H :    0.371735
Sum of atomic charges:   -0.0000000

LOEWDIN ATOMIC CHARGES
----------------------
   0 O :   -0.313381
   1 H :    0.162517
   2 H :    0.145769
   3 O :   -0.339287
   4 H :    0.153605
   5 H :    0.153064
   6 O :   -0.293596
   7 H :    0.148231
   8 H :    0.167460
   9 O :   -0.292811
  10 H :    0.154471
  11 H :    0.169025
  12 O :   -0.341876
  13 H :    0.160605
  14 H :    0.141713
  15 O :   -0.354294
  16 H :    0.148744
  17 H :    0.140790
  18 O :   -0.263912
  19 H :    0.172854
  20 H :    0.180308

  Mayer bond orders larger than 0.100000
B(  0-O ,  1-H ) :   0.8366 B(  0-O ,  2-H ) :   0.7487 B(  3-O ,  4-H ) :   0.8165
B(  3-O ,  5-H ) :   0.8679 B(  6-O ,  7-H ) :   0.7528 B(  6-O ,  8-H ) :   0.8374
B(  7-H ,  9-O ) :   0.1033 B(  9-O , 10-H ) :   0.7930 B(  9-O , 11-H ) :   0.8425
B( 12-O , 13-H ) :   0.8482 B( 12-O , 14-H ) :   0.7729 B( 15-O , 16-H ) :   0.8250
B( 15-O , 17-H ) :   0.8245 B( 18-O , 19-H ) :   0.8355 B( 18-O , 20-H ) :   0.8231

MP2 TOTAL ENERGY:     -534.254309950 Eh
FINAL SINGLE POINT ENERGY      -534.254309949896

DIPOLE MOMENT
-------------
                                X             Y             Z
Electronic contribution:      0.02036       0.34940       0.18476
Nuclear contribution   :      0.59993       0.56789       0.72077
                        -----------------------------------------
Total Dipole Moment    :      0.62029       0.91728       0.90552
                        -----------------------------------------
Magnitude (a.u.)       :      1.43043
Magnitude (Debye)      :      3.63588

Rotational constants in cm-1:     0.047662     0.021577     0.020788
Rotational constants in MHz :  1428.876491   646.869091   623.221441

                             ****ORCA TERMINATED NORMALLY****
TOTAL RUN TIME: 0 days 0 hours 2 minutes 42 seconds 554 msec
