                         Program Version 4.2.0 -  RELEASE  -
|  1> # 12meoh.boyd.etal.mol2,7,10
|  2> ! MP2 def2-TZVP EnGrad TightSCF
|  3>
|  4> %pal
|  5>     nprocs 6
|  6> end
|  7>
|  8> %maxcore 8000
|  9>
| 10> %scf
| 11>     ConvForced true
| 12> end
| 13>
| 14> *xyz 0 1
| 15> O  -3.839777402   2.233595098   0.660436763
| 16> H  -2.958345897   1.907036203   0.973588449
| 17> C  -3.600368059   3.168790682  -0.390480452
| 18> H  -4.551709193   3.344148967  -0.901254863
| 19> H  -2.868237594   2.789240199  -1.113617525
| 20> H  -3.243594915   4.128998607   0.009549480
| 21> O   4.310535586  -1.588322800   0.656128299
| 22> H   3.804372199  -1.630404735  -0.196849819
| 23> C   4.312298137  -2.894980854   1.222112691
| 24> H   4.713177833  -2.819907076   2.237066773
| 25> H   4.957796734  -3.574699304   0.648211180
| 26> H   3.302735989  -3.324433205   1.269756773
| 27> O  -5.201143618   0.064582726  -0.172223772
| 28> H  -4.686891530   0.869258890   0.107806143
| 29> C  -6.513192168   0.171391798   0.359883449
| 30> H  -7.049381312  -0.749234190   0.111361174
| 31> H  -7.057741163   1.017801101  -0.081819420
| 32> H  -6.514770575   0.292264928   1.453058834
| 33> *
| 34>
| 35>                          ****END OF INPUT****

CARTESIAN COORDINATES (ANGSTROEM)
---------------------------------
  O     -3.839777    2.233595    0.660437
  H     -2.958346    1.907036    0.973588
  C     -3.600368    3.168791   -0.390480
  H     -4.551709    3.344149   -0.901255
  H     -2.868238    2.789240   -1.113618
  H     -3.243595    4.128999    0.009549
  O      4.310536   -1.588323    0.656128
  H      3.804372   -1.630405   -0.196850
  C      4.312298   -2.894981    1.222113
  H      4.713178   -2.819907    2.237067
  H      4.957797   -3.574699    0.648211
  H      3.302736   -3.324433    1.269757
  O     -5.201144    0.064583   -0.172224
  H     -4.686892    0.869259    0.107806
  C     -6.513192    0.171392    0.359883
  H     -7.049381   -0.749234    0.111361
  H     -7.057741    1.017801   -0.081819
  H     -6.514771    0.292265    1.453059

 Total Charge           Charge          ....    0
 Multiplicity           Mult            ....    1
 Number of Electrons    NEL             ....   54
 Basis Dimension        Dim             ....  258

ORBITAL ENERGIES
----------------

  NO   OCC          E(Eh)            E(eV)
   0   2.0000     -20.590734      -560.3024
   1   2.0000     -20.558767      -559.4325
   2   2.0000     -20.514816      -558.2365
   3   2.0000     -11.291428      -307.2554
   4   2.0000     -11.272729      -306.7466
   5   2.0000     -11.248502      -306.0873
   6   2.0000      -1.384417       -37.6719
   7   2.0000      -1.348450       -36.6932
   8   2.0000      -1.312391       -35.7120
   9   2.0000      -0.943124       -25.6637
  10   2.0000      -0.920703       -25.0536
  11   2.0000      -0.895050       -24.3556
  12   2.0000      -0.716249       -19.4901
  13   2.0000      -0.683157       -18.5897
  14   2.0000      -0.675405       -18.3787
  15   2.0000      -0.634108       -17.2550
  16   2.0000      -0.618165       -16.8211
  17   2.0000      -0.610528       -16.6133
  18   2.0000      -0.592099       -16.1118
  19   2.0000      -0.590258       -16.0617
  20   2.0000      -0.562493       -15.3062
  21   2.0000      -0.530405       -14.4331
  22   2.0000      -0.502187       -13.6652
  23   2.0000      -0.489975       -13.3329
  24   2.0000      -0.455957       -12.4072
  25   2.0000      -0.450388       -12.2557
  26   2.0000      -0.416850       -11.3431
  27   0.0000       0.119264         3.2453
  28   0.0000       0.133646         3.6367
  29   0.0000       0.160918         4.3788
  30   0.0000       0.170679         4.6444
  31   0.0000       0.175076         4.7641

MULLIKEN ATOMIC CHARGES
-----------------------
   0 O :   -0.510545
   1 H :    0.343429
   2 C :   -0.192959
   3 H :    0.143825
   4 H :    0.131581
   5 H :    0.126403
   6 O :   -0.497172
   7 H :    0.321363
   8 C :   -0.174567
   9 H :    0.129245
  10 H :    0.109929
  11 H :    0.111203
  12 O :   -0.535336
  13 H :    0.338485
  14 C :   -0.157114
  15 H :    0.119473
  16 H :    0.092034
  17 H :    0.100723
Sum of atomic charges:   -0.0000000

LOEWDIN ATOMIC CHARGES
----------------------
   0 O :   -0.074605
   1 H :    0.198092
   2 C :   -0.370932
   3 H :    0.115618
   4 H :    0.103409
   5 H :    0.104321
   6 O :   -0.109816
   7 H :    0.189366
   8 C :   -0.381186
   9 H :    0.110065
  10 H :    0.095637
  11 H :    0.095935
  12 O :   -0.124756
  13 H :    0.156326
  14 C :   -0.395689
  15 H :    0.105152
  16 H :    0.090196
  17 H :    0.092868

  Mayer bond orders larger than 0.100000
B(  0-O ,  1-H ) :   0.8285 B(  0-O ,  2-C ) :   0.8706 B(  0-O , 13-H ) :   0.1029
B(  2-C ,  3-H ) :   0.9396 B(  2-C ,  4-H ) :   0.9411 B(  2-C ,  5-H ) :   0.9326
B(  6-O ,  7-H ) :   0.8432 B(  6-O ,  8-C ) :   0.9256 B(  8-C ,  9-H ) :   0.9377
B(  8-C , 10-H ) :   0.9383 B(  8-C , 11-H ) :   0.9401 B( 12-O , 13-H ) :   0.7895
B( 12-O , 14-C ) :   0.9413 B( 14-C , 15-H ) :   0.9415 B( 14-C , 16-H ) :   0.9367
B( 14-C , 17-H ) :   0.9412

MP2 TOTAL ENERGY:     -346.529591034 Eh
FINAL SINGLE POINT ENERGY      -346.529591034043

DIPOLE MOMENT
-------------
                                X             Y             Z
Electronic contribution:      1.52786       0.58110      -0.00700
Nuclear contribution   :     -1.13600      -0.10931      -0.11622
                        -----------------------------------------
Total Dipole Moment    :      0.39186       0.47179      -0.12321
                        -----------------------------------------
Magnitude (a.u.)       :      0.62556
Magnitude (Debye)      :      1.59004

Rotational constants in cm-1:     0.081906     0.007988     0.007398
Rotational constants in MHz :  2455.492664   239.478783   221.777013

                             ****ORCA TERMINATED NORMALLY****
TOTAL RUN TIME: 0 days 0 hours 0 minutes 54 seconds 899 msec
