                         Program Version 4.2.0 -  RELEASE  -
|  1> # 12mecn.remya.etal.2.mol10
|  2> ! MP2 def2-TZVP EnGrad TightSCF
|  3>
|  4> %pal
|  5>     nprocs 6
|  6> end
|  7>
|  8> %maxcore 8000
|  9>
| 10> %scf
| 11>     ConvForced true
| 12> end
| 13>
| 14> *xyz 0 1
| 15> C   4.602033000   0.321019000  -1.784800000
| 16> H   4.827650000  -0.662160000  -2.207910000
| 17> H   5.320558000   1.057980000  -2.148500000
| 18> H   3.601982000   0.643751000  -2.087520000
| 19> C   4.654967000   0.244048000  -0.343060000
| 20> N   4.691648000   0.166590000   0.820757000
| 21> *
| 22>
| 23>                          ****END OF INPUT****

CARTESIAN COORDINATES (ANGSTROEM)
---------------------------------
  C      4.602033    0.321019   -1.784800
  H      4.827650   -0.662160   -2.207910
  H      5.320558    1.057980   -2.148500
  H      3.601982    0.643751   -2.087520
  C      4.654967    0.244048   -0.343060
  N      4.691648    0.166590    0.820757

 Total Charge           Charge          ....    0
 Multiplicity           Mult            ....    1
 Number of Electrons    NEL             ....   22
 Basis Dimension        Dim             ....  111

ORBITAL ENERGIES
----------------

  NO   OCC          E(Eh)            E(eV)
   0   2.0000     -15.573427      -423.7745
   1   2.0000     -11.285369      -307.0905
   2   2.0000     -11.280348      -306.9539
   3   2.0000      -1.214657       -33.0525
   4   2.0000      -1.044627       -28.4258
   5   2.0000      -0.700411       -19.0592
   6   2.0000      -0.634796       -17.2737
   7   2.0000      -0.630387       -17.1537
   8   2.0000      -0.556045       -15.1308
   9   2.0000      -0.458030       -12.4636
  10   2.0000      -0.457461       -12.4481
  11   0.0000       0.118714         3.2304
  12   0.0000       0.170894         4.6503
  13   0.0000       0.171281         4.6608
  14   0.0000       0.202237         5.5031
  15   0.0000       0.223963         6.0943

MULLIKEN ATOMIC CHARGES
-----------------------
   0 C :   -0.278821
   1 H :    0.172424
   2 H :    0.172018
   3 H :    0.171955
   4 C :   -0.145819
   5 N :   -0.091757
Sum of atomic charges:   -0.0000000

LOEWDIN ATOMIC CHARGES
----------------------
   0 C :   -0.283719
   1 H :    0.152983
   2 H :    0.151479
   3 H :    0.153050
   4 C :   -0.219934
   5 N :    0.046142

  Mayer bond orders larger than 0.100000
B(  0-C ,  1-H ) :   0.9159 B(  0-C ,  2-H ) :   0.9170 B(  0-C ,  3-H ) :   0.9167
B(  0-C ,  4-C ) :   0.9014 B(  4-C ,  5-N ) :   2.8367

MP2 TOTAL ENERGY:     -132.483051491 Eh
FINAL SINGLE POINT ENERGY      -132.483051490714

DIPOLE MOMENT
-------------
                                X             Y             Z
Electronic contribution:      0.12385      -0.18237       3.10149
Nuclear contribution   :     -0.17799       0.27773      -4.62892
                        -----------------------------------------
Total Dipole Moment    :     -0.05413       0.09536      -1.52743
                        -----------------------------------------
Magnitude (a.u.)       :      1.53136
Magnitude (Debye)      :      3.89240

Rotational constants in cm-1:     5.249489     0.308767     0.308437
Rotational constants in MHz : 157375.706754  9256.589534  9246.723238

                             ****ORCA TERMINATED NORMALLY****
TOTAL RUN TIME: 0 days 0 hours 0 minutes 11 seconds 423 msec
