                         Program Version 4.2.0 -  RELEASE  -
|  1> # 12h2o.su.etal.mol4,5,7,8,9,10,11
|  2> ! MP2 def2-TZVP EnGrad TightSCF
|  3>
|  4> %pal
|  5>     nprocs 6
|  6> end
|  7>
|  8> %maxcore 8000
|  9>
| 10> %scf
| 11>     ConvForced true
| 12> end
| 13>
| 14> *xyz 0 1
| 15> O  -0.885520000   1.737840000   0.052730000
| 16> H  -1.032320000   2.090180000  -0.841890000
| 17> H  -1.284090000   0.839590000   0.017130000
| 18> O   0.885520000  -1.737840000   0.052730000
| 19> H   1.284090000  -0.839590000   0.017130000
| 20> H   1.032320000  -2.090180000  -0.841890000
| 21> O  -1.737840000  -0.885520000  -0.052730000
| 22> H  -2.090180000  -1.032320000   0.841890000
| 23> H  -0.839590000  -1.284090000  -0.017130000
| 24> O   1.752130000   0.741530000  -2.896280000
| 25> H   2.036450000   0.920500000  -1.984040000
| 26> H   0.921210000   1.242140000  -2.984230000
| 27> O   0.741530000  -1.752130000   2.896280000
| 28> H   0.920500000  -2.036450000   1.984040000
| 29> H   1.242140000  -0.921210000   2.984230000
| 30> O  -0.923410000   1.794470000  -2.768350000
| 31> H  -1.359750000   2.338250000  -3.430940000
| 32> H  -1.303000000   0.879480000  -2.865760000
| 33> O  -0.741530000   1.752130000   2.896280000
| 34> H  -0.920500000   2.036450000   1.984040000
| 35> H  -1.242140000   0.921210000   2.984230000
| 36> *
| 37>
| 38>                          ****END OF INPUT****

CARTESIAN COORDINATES (ANGSTROEM)
---------------------------------
  O     -0.885520    1.737840    0.052730
  H     -1.032320    2.090180   -0.841890
  H     -1.284090    0.839590    0.017130
  O      0.885520   -1.737840    0.052730
  H      1.284090   -0.839590    0.017130
  H      1.032320   -2.090180   -0.841890
  O     -1.737840   -0.885520   -0.052730
  H     -2.090180   -1.032320    0.841890
  H     -0.839590   -1.284090   -0.017130
  O      1.752130    0.741530   -2.896280
  H      2.036450    0.920500   -1.984040
  H      0.921210    1.242140   -2.984230
  O      0.741530   -1.752130    2.896280
  H      0.920500   -2.036450    1.984040
  H      1.242140   -0.921210    2.984230
  O     -0.923410    1.794470   -2.768350
  H     -1.359750    2.338250   -3.430940
  H     -1.303000    0.879480   -2.865760
  O     -0.741530    1.752130    2.896280
  H     -0.920500    2.036450    1.984040
  H     -1.242140    0.921210    2.984230

 Total Charge           Charge          ....    0
 Multiplicity           Mult            ....    1
 Number of Electrons    NEL             ....   70
 Basis Dimension        Dim             ....  301

ORBITAL ENERGIES
----------------

  NO   OCC          E(Eh)            E(eV)
   0   2.0000     -20.627997      -561.3163
   1   2.0000     -20.621078      -561.1281
   2   2.0000     -20.579079      -559.9852
   3   2.0000     -20.559079      -559.4410
   4   2.0000     -20.546201      -559.0905
   5   2.0000     -20.539275      -558.9021
   6   2.0000     -20.525515      -558.5277
   7   2.0000      -1.411298       -38.4034
   8   2.0000      -1.401310       -38.1316
   9   2.0000      -1.364886       -37.1404
  10   2.0000      -1.341111       -36.4935
  11   2.0000      -1.328080       -36.1389
  12   2.0000      -1.326254       -36.0892
  13   2.0000      -1.306311       -35.5465
  14   2.0000      -0.768743       -20.9186
  15   2.0000      -0.767026       -20.8718
  16   2.0000      -0.734885       -19.9972
  17   2.0000      -0.711197       -19.3526
  18   2.0000      -0.707425       -19.2500
  19   2.0000      -0.701427       -19.0868
  20   2.0000      -0.674963       -18.3667
  21   2.0000      -0.649084       -17.6625
  22   2.0000      -0.640243       -17.4219
  23   2.0000      -0.616506       -16.7760
  24   2.0000      -0.594464       -16.1762
  25   2.0000      -0.576226       -15.6799
  26   2.0000      -0.566663       -15.4197
  27   2.0000      -0.555673       -15.1206
  28   2.0000      -0.554907       -15.0998
  29   2.0000      -0.538350       -14.6492
  30   2.0000      -0.516696       -14.0600
  31   2.0000      -0.506194       -13.7742
  32   2.0000      -0.492986       -13.4148
  33   2.0000      -0.490633       -13.3508
  34   2.0000      -0.471414       -12.8278
  35   0.0000       0.074764         2.0344
  36   0.0000       0.105078         2.8593
  37   0.0000       0.128204         3.4886
  38   0.0000       0.146274         3.9803
  39   0.0000       0.166013         4.5174

MULLIKEN ATOMIC CHARGES
-----------------------
   0 O :   -0.747108
   1 H :    0.365049
   2 H :    0.339547
   3 O :   -0.714665
   4 H :    0.364834
   5 H :    0.376652
   6 O :   -0.715000
   7 H :    0.356131
   8 H :    0.370656
   9 O :   -0.701774
  10 H :    0.326390
  11 H :    0.362610
  12 O :   -0.698927
  13 H :    0.364091
  14 H :    0.337194
  15 O :   -0.717055
  16 H :    0.366550
  17 H :    0.375068
  18 O :   -0.701494
  19 H :    0.374462
  20 H :    0.316790
Sum of atomic charges:   -0.0000000

LOEWDIN ATOMIC CHARGES
----------------------
   0 O :   -0.349706
   1 H :    0.146092
   2 H :    0.135668
   3 O :   -0.274115
   4 H :    0.180895
   5 H :    0.180428
   6 O :   -0.310236
   7 H :    0.169387
   8 H :    0.144830
   9 O :   -0.343346
  10 H :    0.156731
  11 H :    0.148427
  12 O :   -0.336723
  13 H :    0.148783
  14 H :    0.164078
  15 O :   -0.287314
  16 H :    0.169121
  17 H :    0.193252
  18 O :   -0.342681
  19 H :    0.152721
  20 H :    0.153707

  Mayer bond orders larger than 0.100000
B(  0-O ,  1-H ) :   0.8222 B(  0-O ,  2-H ) :   0.7816 B(  3-O ,  4-H ) :   0.8195
B(  3-O ,  5-H ) :   0.8223 B(  6-O ,  7-H ) :   0.8378 B(  6-O ,  8-H ) :   0.7844
B(  9-O , 10-H ) :   0.8576 B(  9-O , 11-H ) :   0.8175 B( 12-O , 13-H ) :   0.8291
B( 12-O , 14-H ) :   0.8488 B( 15-O , 16-H ) :   0.8306 B( 15-O , 17-H ) :   0.8174
B( 18-O , 19-H ) :   0.8121 B( 18-O , 20-H ) :   0.8611

MP2 TOTAL ENERGY:     -534.241850285 Eh
FINAL SINGLE POINT ENERGY      -534.241850284980

DIPOLE MOMENT
-------------
                                X             Y             Z
Electronic contribution:      0.10764      -0.17387      -0.17844
Nuclear contribution   :     -0.67972      -0.19727      -2.09298
                        -----------------------------------------
Total Dipole Moment    :     -0.57208      -0.37114      -2.27142
                        -----------------------------------------
Magnitude (a.u.)       :      2.37158
Magnitude (Debye)      :      6.02808

Rotational constants in cm-1:     0.040293     0.022426     0.017955
Rotational constants in MHz :  1207.942389   672.304408   538.279543

                             ****ORCA TERMINATED NORMALLY****
TOTAL RUN TIME: 0 days 0 hours 1 minutes 52 seconds 798 msec
