                         Program Version 4.2.0 -  RELEASE  -
|  1> # 12h2o.su.etal.mol0,1,2,4,5,6,8
|  2> ! MP2 def2-TZVP EnGrad TightSCF
|  3>
|  4> %pal
|  5>     nprocs 6
|  6> end
|  7>
|  8> %maxcore 8000
|  9>
| 10> %scf
| 11>     ConvForced true
| 12> end
| 13>
| 14> *xyz 0 1
| 15> O   1.794470000   0.923410000   2.768350000
| 16> H   2.338250000   1.359750000   3.430940000
| 17> H   0.879480000   1.303000000   2.865760000
| 18> O  -1.794470000  -0.923410000   2.768350000
| 19> H  -2.338250000  -1.359750000   3.430940000
| 20> H  -0.879480000  -1.303000000   2.865760000
| 21> O   0.923410000  -1.794470000  -2.768350000
| 22> H   1.359750000  -2.338250000  -3.430940000
| 23> H   1.303000000  -0.879480000  -2.865760000
| 24> O  -0.885520000   1.737840000   0.052730000
| 25> H  -1.032320000   2.090180000  -0.841890000
| 26> H  -1.284090000   0.839590000   0.017130000
| 27> O   0.885520000  -1.737840000   0.052730000
| 28> H   1.284090000  -0.839590000   0.017130000
| 29> H   1.032320000  -2.090180000  -0.841890000
| 30> O   1.737840000   0.885520000  -0.052730000
| 31> H   2.090180000   1.032320000   0.841890000
| 32> H   0.839590000   1.284090000  -0.017130000
| 33> O   1.752130000   0.741530000  -2.896280000
| 34> H   2.036450000   0.920500000  -1.984040000
| 35> H   0.921210000   1.242140000  -2.984230000
| 36> *
| 37>
| 38>                          ****END OF INPUT****

CARTESIAN COORDINATES (ANGSTROEM)
---------------------------------
  O      1.794470    0.923410    2.768350
  H      2.338250    1.359750    3.430940
  H      0.879480    1.303000    2.865760
  O     -1.794470   -0.923410    2.768350
  H     -2.338250   -1.359750    3.430940
  H     -0.879480   -1.303000    2.865760
  O      0.923410   -1.794470   -2.768350
  H      1.359750   -2.338250   -3.430940
  H      1.303000   -0.879480   -2.865760
  O     -0.885520    1.737840    0.052730
  H     -1.032320    2.090180   -0.841890
  H     -1.284090    0.839590    0.017130
  O      0.885520   -1.737840    0.052730
  H      1.284090   -0.839590    0.017130
  H      1.032320   -2.090180   -0.841890
  O      1.737840    0.885520   -0.052730
  H      2.090180    1.032320    0.841890
  H      0.839590    1.284090   -0.017130
  O      1.752130    0.741530   -2.896280
  H      2.036450    0.920500   -1.984040
  H      0.921210    1.242140   -2.984230

 Total Charge           Charge          ....    0
 Multiplicity           Mult            ....    1
 Number of Electrons    NEL             ....   70
 Basis Dimension        Dim             ....  301

ORBITAL ENERGIES
----------------

  NO   OCC          E(Eh)            E(eV)
   0   2.0000     -20.599968      -560.5536
   1   2.0000     -20.589314      -560.2637
   2   2.0000     -20.574035      -559.8479
   3   2.0000     -20.555035      -559.3309
   4   2.0000     -20.553420      -559.2870
   5   2.0000     -20.525733      -558.5336
   6   2.0000     -20.482932      -557.3689
   7   2.0000      -1.381560       -37.5941
   8   2.0000      -1.367857       -37.2213
   9   2.0000      -1.364028       -37.1171
  10   2.0000      -1.341230       -36.4967
  11   2.0000      -1.330379       -36.2015
  12   2.0000      -1.310276       -35.6544
  13   2.0000      -1.267013       -34.4772
  14   2.0000      -0.737822       -20.0772
  15   2.0000      -0.734837       -19.9959
  16   2.0000      -0.726918       -19.7804
  17   2.0000      -0.714100       -19.4317
  18   2.0000      -0.698294       -19.0015
  19   2.0000      -0.695044       -18.9131
  20   2.0000      -0.651188       -17.7197
  21   2.0000      -0.632304       -17.2059
  22   2.0000      -0.609794       -16.5933
  23   2.0000      -0.605217       -16.4688
  24   2.0000      -0.577678       -15.7194
  25   2.0000      -0.567961       -15.4550
  26   2.0000      -0.561690       -15.2844
  27   2.0000      -0.537056       -14.6140
  28   2.0000      -0.533150       -14.5077
  29   2.0000      -0.522435       -14.2162
  30   2.0000      -0.504922       -13.7396
  31   2.0000      -0.498521       -13.5654
  32   2.0000      -0.487508       -13.2658
  33   2.0000      -0.469434       -12.7739
  34   2.0000      -0.434102       -11.8125
  35   0.0000       0.088205         2.4002
  36   0.0000       0.114014         3.1025
  37   0.0000       0.142161         3.8684
  38   0.0000       0.161892         4.4053
  39   0.0000       0.179646         4.8884

MULLIKEN ATOMIC CHARGES
-----------------------
   0 O :   -0.698712
   1 H :    0.350494
   2 H :    0.366007
   3 O :   -0.698627
   4 H :    0.336750
   5 H :    0.362295
   6 O :   -0.735157
   7 H :    0.330062
   8 H :    0.368242
   9 O :   -0.691499
  10 H :    0.346932
  11 H :    0.386971
  12 O :   -0.746121
  13 H :    0.344505
  14 H :    0.360124
  15 O :   -0.749715
  16 H :    0.383681
  17 H :    0.348449
  18 O :   -0.689915
  19 H :    0.391873
  20 H :    0.333360
Sum of atomic charges:   -0.0000000

LOEWDIN ATOMIC CHARGES
----------------------
   0 O :   -0.309301
   1 H :    0.163109
   2 H :    0.189000
   3 O :   -0.344166
   4 H :    0.157360
   5 H :    0.186920
   6 O :   -0.342327
   7 H :    0.150147
   8 H :    0.143252
   9 O :   -0.289190
  10 H :    0.167785
  11 H :    0.190723
  12 O :   -0.376295
  13 H :    0.132804
  14 H :    0.143961
  15 O :   -0.304494
  16 H :    0.154304
  17 H :    0.138798
  18 O :   -0.275395
  19 H :    0.159068
  20 H :    0.163937

  Mayer bond orders larger than 0.100000
B(  0-O ,  1-H ) :   0.8427 B(  0-O ,  2-H ) :   0.8247 B(  3-O ,  4-H ) :   0.8538
B(  3-O ,  5-H ) :   0.8291 B(  6-O ,  7-H ) :   0.8541 B(  6-O ,  8-H ) :   0.7664
B(  9-O , 10-H ) :   0.8435 B(  9-O , 11-H ) :   0.8099 B( 12-O , 13-H ) :   0.8105
B( 12-O , 14-H ) :   0.8201 B( 15-O , 16-H ) :   0.7991 B( 15-O , 17-H ) :   0.7774
B( 18-O , 19-H ) :   0.7913 B( 18-O , 20-H ) :   0.8508

MP2 TOTAL ENERGY:     -534.244344552 Eh
FINAL SINGLE POINT ENERGY      -534.244344552294

DIPOLE MOMENT
-------------
                                X             Y             Z
Electronic contribution:     -0.03741       0.29742       0.19447
Nuclear contribution   :     -0.23021       1.32858       0.54442
                        -----------------------------------------
Total Dipole Moment    :     -0.26762       1.62600       0.73890
                        -----------------------------------------
Magnitude (a.u.)       :      1.80595
Magnitude (Debye)      :      4.59037

Rotational constants in cm-1:     0.042499     0.021672     0.019278
Rotational constants in MHz :  1274.073584   649.713478   577.936674

                             ****ORCA TERMINATED NORMALLY****
TOTAL RUN TIME: 0 days 0 hours 1 minutes 52 seconds 958 msec
