                         Program Version 4.2.0 -  RELEASE  -
|  1> # 12h2o.su.etal.mol0,1,2,5,6,7,9,10
|  2> ! MP2 def2-TZVP EnGrad TightSCF
|  3>
|  4> %pal
|  5>     nprocs 6
|  6> end
|  7>
|  8> %maxcore 8000
|  9>
| 10> %scf
| 11>     ConvForced true
| 12> end
| 13>
| 14> *xyz 0 1
| 15> O   1.794470000   0.923410000   2.768350000
| 16> H   2.338250000   1.359750000   3.430940000
| 17> H   0.879480000   1.303000000   2.865760000
| 18> O  -1.794470000  -0.923410000   2.768350000
| 19> H  -2.338250000  -1.359750000   3.430940000
| 20> H  -0.879480000  -1.303000000   2.865760000
| 21> O   0.923410000  -1.794470000  -2.768350000
| 22> H   1.359750000  -2.338250000  -3.430940000
| 23> H   1.303000000  -0.879480000  -2.865760000
| 24> O   0.885520000  -1.737840000   0.052730000
| 25> H   1.284090000  -0.839590000   0.017130000
| 26> H   1.032320000  -2.090180000  -0.841890000
| 27> O   1.737840000   0.885520000  -0.052730000
| 28> H   2.090180000   1.032320000   0.841890000
| 29> H   0.839590000   1.284090000  -0.017130000
| 30> O  -1.737840000  -0.885520000  -0.052730000
| 31> H  -2.090180000  -1.032320000   0.841890000
| 32> H  -0.839590000  -1.284090000  -0.017130000
| 33> O   0.741530000  -1.752130000   2.896280000
| 34> H   0.920500000  -2.036450000   1.984040000
| 35> H   1.242140000  -0.921210000   2.984230000
| 36> O  -0.923410000   1.794470000  -2.768350000
| 37> H  -1.359750000   2.338250000  -3.430940000
| 38> H  -1.303000000   0.879480000  -2.865760000
| 39> *
| 40>
| 41>                          ****END OF INPUT****

CARTESIAN COORDINATES (ANGSTROEM)
---------------------------------
  O      1.794470    0.923410    2.768350
  H      2.338250    1.359750    3.430940
  H      0.879480    1.303000    2.865760
  O     -1.794470   -0.923410    2.768350
  H     -2.338250   -1.359750    3.430940
  H     -0.879480   -1.303000    2.865760
  O      0.923410   -1.794470   -2.768350
  H      1.359750   -2.338250   -3.430940
  H      1.303000   -0.879480   -2.865760
  O      0.885520   -1.737840    0.052730
  H      1.284090   -0.839590    0.017130
  H      1.032320   -2.090180   -0.841890
  O      1.737840    0.885520   -0.052730
  H      2.090180    1.032320    0.841890
  H      0.839590    1.284090   -0.017130
  O     -1.737840   -0.885520   -0.052730
  H     -2.090180   -1.032320    0.841890
  H     -0.839590   -1.284090   -0.017130
  O      0.741530   -1.752130    2.896280
  H      0.920500   -2.036450    1.984040
  H      1.242140   -0.921210    2.984230
  O     -0.923410    1.794470   -2.768350
  H     -1.359750    2.338250   -3.430940
  H     -1.303000    0.879480   -2.865760

 Total Charge           Charge          ....    0
 Multiplicity           Mult            ....    1
 Number of Electrons    NEL             ....   80
 Basis Dimension        Dim             ....  344

ORBITAL ENERGIES
----------------

  NO   OCC          E(Eh)            E(eV)
   0   2.0000     -20.621623      -561.1429
   1   2.0000     -20.582013      -560.0650
   2   2.0000     -20.569282      -559.7186
   3   2.0000     -20.551154      -559.2253
   4   2.0000     -20.545749      -559.0783
   5   2.0000     -20.539259      -558.9017
   6   2.0000     -20.523860      -558.4826
   7   2.0000     -20.477778      -557.2287
   8   2.0000      -1.402149       -38.1544
   9   2.0000      -1.360804       -37.0294
  10   2.0000      -1.354047       -36.8455
  11   2.0000      -1.341308       -36.4988
  12   2.0000      -1.326514       -36.0963
  13   2.0000      -1.325956       -36.0811
  14   2.0000      -1.306979       -35.5647
  15   2.0000      -1.261815       -34.3357
  16   2.0000      -0.767416       -20.8825
  17   2.0000      -0.727005       -19.7828
  18   2.0000      -0.717427       -19.5222
  19   2.0000      -0.710104       -19.3229
  20   2.0000      -0.699569       -19.0363
  21   2.0000      -0.694354       -18.8943
  22   2.0000      -0.690506       -18.7896
  23   2.0000      -0.645632       -17.5685
  24   2.0000      -0.642704       -17.4889
  25   2.0000      -0.611398       -16.6370
  26   2.0000      -0.600720       -16.3464
  27   2.0000      -0.590327       -16.0636
  28   2.0000      -0.564632       -15.3644
  29   2.0000      -0.563781       -15.3412
  30   2.0000      -0.557656       -15.1746
  31   2.0000      -0.546027       -14.8581
  32   2.0000      -0.525459       -14.2985
  33   2.0000      -0.517690       -14.0871
  34   2.0000      -0.505743       -13.7620
  35   2.0000      -0.494602       -13.4588
  36   2.0000      -0.487787       -13.2734
  37   2.0000      -0.477710       -12.9992
  38   2.0000      -0.466279       -12.6881
  39   2.0000      -0.429113       -11.6768
  40   0.0000       0.092007         2.5036
  41   0.0000       0.114967         3.1284
  42   0.0000       0.145767         3.9665
  43   0.0000       0.157188         4.2773
  44   0.0000       0.174463         4.7474

MULLIKEN ATOMIC CHARGES
-----------------------
   0 O :   -0.724463
   1 H :    0.368515
   2 H :    0.380527
   3 O :   -0.742167
   4 H :    0.329426
   5 H :    0.368140
   6 O :   -0.698492
   7 H :    0.348230
   8 H :    0.366968
   9 O :   -0.751242
  10 H :    0.354752
  11 H :    0.378995
  12 O :   -0.705969
  13 H :    0.373896
  14 H :    0.365811
  15 O :   -0.748192
  16 H :    0.358073
  17 H :    0.346042
  18 O :   -0.716866
  19 H :    0.388988
  20 H :    0.358758
  21 O :   -0.696837
  22 H :    0.334619
  23 H :    0.362486
Sum of atomic charges:   -0.0000000

LOEWDIN ATOMIC CHARGES
----------------------
   0 O :   -0.288356
   1 H :    0.170002
   2 H :    0.195981
   3 O :   -0.346601
   4 H :    0.149600
   5 H :    0.142298
   6 O :   -0.309679
   7 H :    0.161965
   8 H :    0.189297
   9 O :   -0.304939
  10 H :    0.140421
  11 H :    0.152390
  12 O :   -0.297605
  13 H :    0.150667
  14 H :    0.180297
  15 O :   -0.377768
  16 H :    0.142912
  17 H :    0.133555
  18 O :   -0.287387
  19 H :    0.157002
  20 H :    0.145999
  21 O :   -0.343485
  22 H :    0.156367
  23 H :    0.187066

  Mayer bond orders larger than 0.100000
B(  0-O ,  1-H ) :   0.8296 B(  0-O ,  2-H ) :   0.8121 B(  3-O ,  4-H ) :   0.8542
B(  3-O ,  5-H ) :   0.7539 B(  5-H , 18-O ) :   0.1083 B(  6-O ,  7-H ) :   0.8440
B(  6-O ,  8-H ) :   0.8240 B(  9-O , 10-H ) :   0.7698 B(  9-O , 11-H ) :   0.8028
B( 12-O , 13-H ) :   0.8109 B( 12-O , 14-H ) :   0.8237 B( 15-O , 16-H ) :   0.8221
B( 15-O , 17-H ) :   0.8060 B( 18-O , 19-H ) :   0.7957 B( 18-O , 20-H ) :   0.8193
B( 21-O , 22-H ) :   0.8548 B( 21-O , 23-H ) :   0.8290

MP2 TOTAL ENERGY:     -610.574906011 Eh
FINAL SINGLE POINT ENERGY      -610.574906010616

DIPOLE MOMENT
-------------
                                X             Y             Z
Electronic contribution:      0.49005       0.09572      -0.06880
Nuclear contribution   :      1.01960       0.90936       0.08817
                        -----------------------------------------
Total Dipole Moment    :      1.50965       1.00508       0.01937
                        -----------------------------------------
Magnitude (a.u.)       :      1.81373
Magnitude (Debye)      :      4.61013

Rotational constants in cm-1:     0.031959     0.017689     0.016838
Rotational constants in MHz :   958.092503   530.309801   504.780463

                             ****ORCA TERMINATED NORMALLY****
TOTAL RUN TIME: 0 days 0 hours 2 minutes 59 seconds 45 msec
