                         Program Version 4.2.0 -  RELEASE  -
|  1> # 12h2o.su.etal.mol0,7,8
|  2> ! MP2 def2-TZVP EnGrad TightSCF
|  3>
|  4> %pal
|  5>     nprocs 6
|  6> end
|  7>
|  8> %maxcore 8000
|  9>
| 10> %scf
| 11>     ConvForced true
| 12> end
| 13>
| 14> *xyz 0 1
| 15> O   1.794470000   0.923410000   2.768350000
| 16> H   2.338250000   1.359750000   3.430940000
| 17> H   0.879480000   1.303000000   2.865760000
| 18> O  -1.737840000  -0.885520000  -0.052730000
| 19> H  -2.090180000  -1.032320000   0.841890000
| 20> H  -0.839590000  -1.284090000  -0.017130000
| 21> O   1.752130000   0.741530000  -2.896280000
| 22> H   2.036450000   0.920500000  -1.984040000
| 23> H   0.921210000   1.242140000  -2.984230000
| 24> *
| 25>
| 26>                          ****END OF INPUT****

CARTESIAN COORDINATES (ANGSTROEM)
---------------------------------
  O      1.794470    0.923410    2.768350
  H      2.338250    1.359750    3.430940
  H      0.879480    1.303000    2.865760
  O     -1.737840   -0.885520   -0.052730
  H     -2.090180   -1.032320    0.841890
  H     -0.839590   -1.284090   -0.017130
  O      1.752130    0.741530   -2.896280
  H      2.036450    0.920500   -1.984040
  H      0.921210    1.242140   -2.984230

 Total Charge           Charge          ....    0
 Multiplicity           Mult            ....    1
 Number of Electrons    NEL             ....   30
 Basis Dimension        Dim             ....  129

ORBITAL ENERGIES
----------------

  NO   OCC          E(Eh)            E(eV)
   0   2.0000     -20.572751      -559.8130
   1   2.0000     -20.564443      -559.5869
   2   2.0000     -20.555228      -559.3362
   3   2.0000      -1.348070       -36.6829
   4   2.0000      -1.340453       -36.4756
   5   2.0000      -1.334481       -36.3131
   6   2.0000      -0.716512       -19.4973
   7   2.0000      -0.702499       -19.1160
   8   2.0000      -0.697273       -18.9738
   9   2.0000      -0.584310       -15.8999
  10   2.0000      -0.579798       -15.7771
  11   2.0000      -0.572145       -15.5688
  12   2.0000      -0.516027       -14.0418
  13   2.0000      -0.507398       -13.8070
  14   2.0000      -0.499413       -13.5897
  15   0.0000       0.100864         2.7446
  16   0.0000       0.129681         3.5288
  17   0.0000       0.143348         3.9007
  18   0.0000       0.189797         5.1646
  19   0.0000       0.196634         5.3507

MULLIKEN ATOMIC CHARGES
-----------------------
   0 O :   -0.685649
   1 H :    0.342430
   2 H :    0.343087
   3 O :   -0.678618
   4 H :    0.334885
   5 H :    0.343640
   6 O :   -0.677831
   7 H :    0.338678
   8 H :    0.339377
Sum of atomic charges:   -0.0000000

LOEWDIN ATOMIC CHARGES
----------------------
   0 O :   -0.340431
   1 H :    0.159481
   2 H :    0.180816
   3 O :   -0.338879
   4 H :    0.164177
   5 H :    0.174657
   6 O :   -0.333331
   7 H :    0.165903
   8 H :    0.167607

  Mayer bond orders larger than 0.100000
B(  0-O ,  1-H ) :   0.8512 B(  0-O ,  2-H ) :   0.8452 B(  3-O ,  4-H ) :   0.8544
B(  3-O ,  5-H ) :   0.8471 B(  6-O ,  7-H ) :   0.8523 B(  6-O ,  8-H ) :   0.8517

MP2 TOTAL ENERGY:     -228.939512859 Eh
FINAL SINGLE POINT ENERGY      -228.939512859290

DIPOLE MOMENT
-------------
                                X             Y             Z
Electronic contribution:      0.06019      -0.12397      -0.32352
Nuclear contribution   :     -0.30955       0.79086       2.09298
                        -----------------------------------------
Total Dipole Moment    :     -0.24936       0.66689       1.76946
                        -----------------------------------------
Magnitude (a.u.)       :      1.90733
Magnitude (Debye)      :      4.84805

Rotational constants in cm-1:     0.091034     0.057540     0.035516
Rotational constants in MHz :  2729.144444  1725.009552  1064.751145

                             ****ORCA TERMINATED NORMALLY****
TOTAL RUN TIME: 0 days 0 hours 0 minutes 7 seconds 954 msec
