                         Program Version 4.2.0 -  RELEASE  -
|  1> # 12meoh.boyd.etal.mol4,6,7
|  2> ! MP2 def2-TZVP EnGrad TightSCF
|  3>
|  4> %pal
|  5>     nprocs 6
|  6> end
|  7>
|  8> %maxcore 8000
|  9>
| 10> %scf
| 11>     ConvForced true
| 12> end
| 13>
| 14> *xyz 0 1
| 15> O  -1.358578914   1.232360421   1.189721000
| 16> H  -1.058250183   1.216459361   0.238591307
| 17> C  -0.389763452   1.957872567   1.943072362
| 18> H  -0.747220771   2.012806578   2.975200343
| 19> H  -0.260410585   2.982763209   1.565366540
| 20> H   0.585220638   1.453754179   1.934070793
| 21> O   2.622209273  -1.703002590  -1.445859723
| 22> H   1.828551432  -1.986513781  -0.909754968
| 23> C   2.781117675  -2.615822239  -2.525472890
| 24> H   3.691063626  -2.339003544  -3.065143454
| 25> H   1.934727323  -2.559520367  -3.223226661
| 26> H   2.879948338  -3.653846211  -2.177750170
| 27> O   4.310535586  -1.588322800   0.656128299
| 28> H   3.804372199  -1.630404735  -0.196849819
| 29> C   4.312298137  -2.894980854   1.222112691
| 30> H   4.713177833  -2.819907076   2.237066773
| 31> H   4.957796734  -3.574699304   0.648211180
| 32> H   3.302735989  -3.324433205   1.269756773
| 33> *
| 34>
| 35>                          ****END OF INPUT****

CARTESIAN COORDINATES (ANGSTROEM)
---------------------------------
  O     -1.358579    1.232360    1.189721
  H     -1.058250    1.216459    0.238591
  C     -0.389763    1.957873    1.943072
  H     -0.747221    2.012807    2.975200
  H     -0.260411    2.982763    1.565367
  H      0.585221    1.453754    1.934071
  O      2.622209   -1.703003   -1.445860
  H      1.828551   -1.986514   -0.909755
  C      2.781118   -2.615822   -2.525473
  H      3.691064   -2.339004   -3.065143
  H      1.934727   -2.559520   -3.223227
  H      2.879948   -3.653846   -2.177750
  O      4.310536   -1.588323    0.656128
  H      3.804372   -1.630405   -0.196850
  C      4.312298   -2.894981    1.222113
  H      4.713178   -2.819907    2.237067
  H      4.957797   -3.574699    0.648211
  H      3.302736   -3.324433    1.269757

 Total Charge           Charge          ....    0
 Multiplicity           Mult            ....    1
 Number of Electrons    NEL             ....   54
 Basis Dimension        Dim             ....  258

ORBITAL ENERGIES
----------------

  NO   OCC          E(Eh)            E(eV)
   0   2.0000     -20.593865      -560.3875
   1   2.0000     -20.556866      -559.3808
   2   2.0000     -20.520709      -558.3969
   3   2.0000     -11.294538      -307.3400
   4   2.0000     -11.268886      -306.6420
   5   2.0000     -11.257441      -306.3306
   6   2.0000      -1.385977       -37.7143
   7   2.0000      -1.344320       -36.5808
   8   2.0000      -1.317720       -35.8570
   9   2.0000      -0.946460       -25.7545
  10   2.0000      -0.916806       -24.9476
  11   2.0000      -0.903193       -24.5771
  12   2.0000      -0.714815       -19.4511
  13   2.0000      -0.682516       -18.5722
  14   2.0000      -0.678883       -18.4733
  15   2.0000      -0.637302       -17.3419
  16   2.0000      -0.616149       -16.7663
  17   2.0000      -0.614554       -16.7229
  18   2.0000      -0.598649       -16.2901
  19   2.0000      -0.588430       -16.0120
  20   2.0000      -0.568373       -15.4662
  21   2.0000      -0.530406       -14.4331
  22   2.0000      -0.498525       -13.5656
  23   2.0000      -0.494803       -13.4643
  24   2.0000      -0.461987       -12.5713
  25   2.0000      -0.447790       -12.1850
  26   2.0000      -0.423831       -11.5330
  27   0.0000       0.104450         2.8422
  28   0.0000       0.135244         3.6802
  29   0.0000       0.160816         4.3760
  30   0.0000       0.173383         4.7180
  31   0.0000       0.178692         4.8625

MULLIKEN ATOMIC CHARGES
-----------------------
   0 O :   -0.501276
   1 H :    0.320053
   2 C :   -0.176701
   3 H :    0.128481
   4 H :    0.109830
   5 H :    0.119382
   6 O :   -0.516979
   7 H :    0.342067
   8 C :   -0.187883
   9 H :    0.145490
  10 H :    0.127221
  11 H :    0.126187
  12 O :   -0.524239
  13 H :    0.353461
  14 C :   -0.178081
  15 H :    0.127264
  16 H :    0.101709
  17 H :    0.084014
Sum of atomic charges:    0.0000000

LOEWDIN ATOMIC CHARGES
----------------------
   0 O :   -0.114843
   1 H :    0.190698
   2 C :   -0.379903
   3 H :    0.110154
   4 H :    0.096006
   5 H :    0.097768
   6 O :   -0.074593
   7 H :    0.201820
   8 C :   -0.374957
   9 H :    0.116264
  10 H :    0.104323
  11 H :    0.101183
  12 O :   -0.120352
  13 H :    0.157824
  14 C :   -0.397074
  15 H :    0.107448
  16 H :    0.091740
  17 H :    0.086492

  Mayer bond orders larger than 0.100000
B(  0-O ,  1-H ) :   0.8428 B(  0-O ,  2-C ) :   0.9203 B(  2-C ,  3-H ) :   0.9371
B(  2-C ,  4-H ) :   0.9389 B(  2-C ,  5-H ) :   0.9385 B(  6-O ,  7-H ) :   0.8272
B(  6-O ,  8-C ) :   0.8722 B(  8-C ,  9-H ) :   0.9390 B(  8-C , 10-H ) :   0.9355
B(  8-C , 11-H ) :   0.9368 B( 12-O , 13-H ) :   0.7928 B( 12-O , 14-C ) :   0.9449
B( 14-C , 15-H ) :   0.9423 B( 14-C , 16-H ) :   0.9406 B( 14-C , 17-H ) :   0.9356

MP2 TOTAL ENERGY:     -346.528435247 Eh
FINAL SINGLE POINT ENERGY      -346.528435246586

DIPOLE MOMENT
-------------
                                X             Y             Z
Electronic contribution:     -1.44698       2.02560      -0.42290
Nuclear contribution   :      1.13847      -2.79717      -0.58807
                        -----------------------------------------
Total Dipole Moment    :     -0.30851      -0.77157      -1.01097
                        -----------------------------------------
Magnitude (a.u.)       :      1.30864
Magnitude (Debye)      :      3.32631

Rotational constants in cm-1:     0.075215     0.019931     0.016485
Rotational constants in MHz :  2254.893348   597.506895   494.204791

                             ****ORCA TERMINATED NORMALLY****
TOTAL RUN TIME: 0 days 0 hours 1 minutes 5 seconds 610 msec
