                         Program Version 4.2.0 -  RELEASE  -
|  1> # 12meoh.boyd.etal.mol1,2,4
|  2> ! MP2 def2-TZVP EnGrad TightSCF
|  3>
|  4> %pal
|  5>     nprocs 6
|  6> end
|  7>
|  8> %maxcore 8000
|  9>
| 10> %scf
| 11>     ConvForced true
| 12> end
| 13>
| 14> *xyz 0 1
| 15> O   0.666045193  -2.600503172   0.138317521
| 16> H  -0.227115049  -2.712051982  -0.281868004
| 17> C   0.490021232  -1.851247678   1.341189459
| 18> H   1.466500502  -1.466176022   1.645844415
| 19> H   0.097564527  -2.488364683   2.146902740
| 20> H  -0.187588112  -1.000787499   1.200739571
| 21> O  -3.839777402   2.233595098   0.660436763
| 22> H  -2.958345897   1.907036203   0.973588449
| 23> C  -3.600368059   3.168790682  -0.390480452
| 24> H  -4.551709193   3.344148967  -0.901254863
| 25> H  -2.868237594   2.789240199  -1.113617525
| 26> H  -3.243594915   4.128998607   0.009549480
| 27> O  -1.358578914   1.232360421   1.189721000
| 28> H  -1.058250183   1.216459361   0.238591307
| 29> C  -0.389763452   1.957872567   1.943072362
| 30> H  -0.747220771   2.012806578   2.975200343
| 31> H  -0.260410585   2.982763209   1.565366540
| 32> H   0.585220638   1.453754179   1.934070793
| 33> *
| 34>
| 35>                          ****END OF INPUT****

CARTESIAN COORDINATES (ANGSTROEM)
---------------------------------
  O      0.666045   -2.600503    0.138318
  H     -0.227115   -2.712052   -0.281868
  C      0.490021   -1.851248    1.341189
  H      1.466501   -1.466176    1.645844
  H      0.097565   -2.488365    2.146903
  H     -0.187588   -1.000787    1.200740
  O     -3.839777    2.233595    0.660437
  H     -2.958346    1.907036    0.973588
  C     -3.600368    3.168791   -0.390480
  H     -4.551709    3.344149   -0.901255
  H     -2.868238    2.789240   -1.113618
  H     -3.243595    4.128999    0.009549
  O     -1.358579    1.232360    1.189721
  H     -1.058250    1.216459    0.238591
  C     -0.389763    1.957873    1.943072
  H     -0.747221    2.012807    2.975200
  H     -0.260411    2.982763    1.565367
  H      0.585221    1.453754    1.934071

 Total Charge           Charge          ....    0
 Multiplicity           Mult            ....    1
 Number of Electrons    NEL             ....   54
 Basis Dimension        Dim             ....  258

ORBITAL ENERGIES
----------------

  NO   OCC          E(Eh)            E(eV)
   0   2.0000     -20.598141      -560.5039
   1   2.0000     -20.558396      -559.4224
   2   2.0000     -20.524293      -558.4944
   3   2.0000     -11.297189      -307.4121
   4   2.0000     -11.270922      -306.6974
   5   2.0000     -11.261180      -306.4323
   6   2.0000      -1.389547       -37.8115
   7   2.0000      -1.346592       -36.6426
   8   2.0000      -1.320630       -35.9362
   9   2.0000      -0.949209       -25.8293
  10   2.0000      -0.920715       -25.0539
  11   2.0000      -0.906890       -24.6777
  12   2.0000      -0.718018       -19.5383
  13   2.0000      -0.686432       -18.6788
  14   2.0000      -0.680663       -18.5218
  15   2.0000      -0.641947       -17.4683
  16   2.0000      -0.619335       -16.8530
  17   2.0000      -0.615853       -16.7582
  18   2.0000      -0.601807       -16.3760
  19   2.0000      -0.591437       -16.0938
  20   2.0000      -0.571113       -15.5408
  21   2.0000      -0.534380       -14.5412
  22   2.0000      -0.505286       -13.7495
  23   2.0000      -0.494725       -13.4622
  24   2.0000      -0.467307       -12.7161
  25   2.0000      -0.449558       -12.2331
  26   2.0000      -0.427363       -11.6291
  27   0.0000       0.105547         2.8721
  28   0.0000       0.137416         3.7393
  29   0.0000       0.150382         4.0921
  30   0.0000       0.171453         4.6655
  31   0.0000       0.185151         5.0382

MULLIKEN ATOMIC CHARGES
-----------------------
   0 O :   -0.501191
   1 H :    0.323338
   2 C :   -0.175070
   3 H :    0.121598
   4 H :    0.113086
   5 H :    0.108954
   6 O :   -0.520013
   7 H :    0.355268
   8 C :   -0.180925
   9 H :    0.128868
  10 H :    0.081849
  11 H :    0.103346
  12 O :   -0.522989
  13 H :    0.345530
  14 C :   -0.189925
  15 H :    0.147828
  16 H :    0.132301
  17 H :    0.128146
Sum of atomic charges:    0.0000000

LOEWDIN ATOMIC CHARGES
----------------------
   0 O :   -0.112872
   1 H :    0.189985
   2 C :   -0.382931
   3 H :    0.106755
   4 H :    0.098116
   5 H :    0.096003
   6 O :   -0.119777
   7 H :    0.158670
   8 C :   -0.394112
   9 H :    0.108055
  10 H :    0.085605
  11 H :    0.092327
  12 O :   -0.074744
  13 H :    0.199476
  14 C :   -0.374650
  15 H :    0.117194
  16 H :    0.103453
  17 H :    0.103448

  Mayer bond orders larger than 0.100000
B(  0-O ,  1-H ) :   0.8424 B(  0-O ,  2-C ) :   0.9201 B(  2-C ,  3-H ) :   0.9361
B(  2-C ,  4-H ) :   0.9362 B(  2-C ,  5-H ) :   0.9408 B(  6-O ,  7-H ) :   0.7984
B(  6-O ,  8-C ) :   0.9437 B(  8-C ,  9-H ) :   0.9427 B(  8-C , 10-H ) :   0.9370
B(  8-C , 11-H ) :   0.9385 B( 12-O , 13-H ) :   0.8251 B( 12-O , 14-C ) :   0.8580
B( 14-C , 15-H ) :   0.9396 B( 14-C , 16-H ) :   0.9360 B( 14-C , 17-H ) :   0.9335

MP2 TOTAL ENERGY:     -346.529396317 Eh
FINAL SINGLE POINT ENERGY      -346.529396316769

DIPOLE MOMENT
-------------
                                X             Y             Z
Electronic contribution:     -1.13539      -3.11086      -0.81141
Nuclear contribution   :      1.96520       3.73246       0.72079
                        -----------------------------------------
Total Dipole Moment    :      0.82981       0.62160      -0.09061
                        -----------------------------------------
Magnitude (a.u.)       :      1.04077
Magnitude (Debye)      :      2.64541

Rotational constants in cm-1:     0.132734     0.023315     0.020971
Rotational constants in MHz :  3979.279894   698.962825   628.708421

                             ****ORCA TERMINATED NORMALLY****
TOTAL RUN TIME: 0 days 0 hours 1 minutes 19 seconds 410 msec
