                         Program Version 4.2.0 -  RELEASE  -
|  1> # 12h2o.su.etal.mol1,3,4,5,6,7,8,10
|  2> ! MP2 def2-TZVP EnGrad TightSCF
|  3>
|  4> %pal
|  5>     nprocs 6
|  6> end
|  7>
|  8> %maxcore 8000
|  9>
| 10> %scf
| 11>     ConvForced true
| 12> end
| 13>
| 14> *xyz 0 1
| 15> O  -1.794470000  -0.923410000   2.768350000
| 16> H  -2.338250000  -1.359750000   3.430940000
| 17> H  -0.879480000  -1.303000000   2.865760000
| 18> O  -1.752130000  -0.741530000  -2.896280000
| 19> H  -2.036450000  -0.920500000  -1.984040000
| 20> H  -0.921210000  -1.242140000  -2.984230000
| 21> O  -0.885520000   1.737840000   0.052730000
| 22> H  -1.032320000   2.090180000  -0.841890000
| 23> H  -1.284090000   0.839590000   0.017130000
| 24> O   0.885520000  -1.737840000   0.052730000
| 25> H   1.284090000  -0.839590000   0.017130000
| 26> H   1.032320000  -2.090180000  -0.841890000
| 27> O   1.737840000   0.885520000  -0.052730000
| 28> H   2.090180000   1.032320000   0.841890000
| 29> H   0.839590000   1.284090000  -0.017130000
| 30> O  -1.737840000  -0.885520000  -0.052730000
| 31> H  -2.090180000  -1.032320000   0.841890000
| 32> H  -0.839590000  -1.284090000  -0.017130000
| 33> O   1.752130000   0.741530000  -2.896280000
| 34> H   2.036450000   0.920500000  -1.984040000
| 35> H   0.921210000   1.242140000  -2.984230000
| 36> O  -0.923410000   1.794470000  -2.768350000
| 37> H  -1.359750000   2.338250000  -3.430940000
| 38> H  -1.303000000   0.879480000  -2.865760000
| 39> *
| 40>
| 41>                          ****END OF INPUT****

CARTESIAN COORDINATES (ANGSTROEM)
---------------------------------
  O     -1.794470   -0.923410    2.768350
  H     -2.338250   -1.359750    3.430940
  H     -0.879480   -1.303000    2.865760
  O     -1.752130   -0.741530   -2.896280
  H     -2.036450   -0.920500   -1.984040
  H     -0.921210   -1.242140   -2.984230
  O     -0.885520    1.737840    0.052730
  H     -1.032320    2.090180   -0.841890
  H     -1.284090    0.839590    0.017130
  O      0.885520   -1.737840    0.052730
  H      1.284090   -0.839590    0.017130
  H      1.032320   -2.090180   -0.841890
  O      1.737840    0.885520   -0.052730
  H      2.090180    1.032320    0.841890
  H      0.839590    1.284090   -0.017130
  O     -1.737840   -0.885520   -0.052730
  H     -2.090180   -1.032320    0.841890
  H     -0.839590   -1.284090   -0.017130
  O      1.752130    0.741530   -2.896280
  H      2.036450    0.920500   -1.984040
  H      0.921210    1.242140   -2.984230
  O     -0.923410    1.794470   -2.768350
  H     -1.359750    2.338250   -3.430940
  H     -1.303000    0.879480   -2.865760

 Total Charge           Charge          ....    0
 Multiplicity           Mult            ....    1
 Number of Electrons    NEL             ....   80
 Basis Dimension        Dim             ....  344

ORBITAL ENERGIES
----------------

  NO   OCC          E(Eh)            E(eV)
   0   2.0000     -20.596835      -560.4684
   1   2.0000     -20.578009      -559.9561
   2   2.0000     -20.573650      -559.8375
   3   2.0000     -20.573322      -559.8285
   4   2.0000     -20.563186      -559.5527
   5   2.0000     -20.558933      -559.4370
   6   2.0000     -20.534768      -558.7795
   7   2.0000     -20.510906      -558.1301
   8   2.0000      -1.377063       -37.4718
   9   2.0000      -1.372102       -37.3368
  10   2.0000      -1.368811       -37.2473
  11   2.0000      -1.356869       -36.9223
  12   2.0000      -1.347601       -36.6701
  13   2.0000      -1.343602       -36.5613
  14   2.0000      -1.318581       -35.8804
  15   2.0000      -1.295745       -35.2590
  16   2.0000      -0.742576       -20.2065
  17   2.0000      -0.732767       -19.9396
  18   2.0000      -0.727090       -19.7851
  19   2.0000      -0.725761       -19.7490
  20   2.0000      -0.725168       -19.7328
  21   2.0000      -0.719624       -19.5820
  22   2.0000      -0.696755       -18.9597
  23   2.0000      -0.674014       -18.3408
  24   2.0000      -0.640208       -17.4209
  25   2.0000      -0.618532       -16.8311
  26   2.0000      -0.612050       -16.6547
  27   2.0000      -0.602135       -16.3849
  28   2.0000      -0.588046       -16.0016
  29   2.0000      -0.584981       -15.9181
  30   2.0000      -0.565462       -15.3870
  31   2.0000      -0.538684       -14.6583
  32   2.0000      -0.534170       -14.5355
  33   2.0000      -0.520059       -14.1515
  34   2.0000      -0.516333       -14.0501
  35   2.0000      -0.515166       -14.0184
  36   2.0000      -0.507766       -13.8170
  37   2.0000      -0.501440       -13.6449
  38   2.0000      -0.484337       -13.1795
  39   2.0000      -0.460895       -12.5416
  40   0.0000       0.095633         2.6023
  41   0.0000       0.118043         3.2121
  42   0.0000       0.143837         3.9140
  43   0.0000       0.149398         4.0653
  44   0.0000       0.184582         5.0227

MULLIKEN ATOMIC CHARGES
-----------------------
   0 O :   -0.697056
   1 H :    0.353740
   2 H :    0.361907
   3 O :   -0.700833
   4 H :    0.392366
   5 H :    0.349367
   6 O :   -0.733213
   7 H :    0.375045
   8 H :    0.366362
   9 O :   -0.720824
  10 H :    0.373935
  11 H :    0.351080
  12 O :   -0.741224
  13 H :    0.353354
  14 H :    0.374668
  15 O :   -0.760200
  16 H :    0.386368
  17 H :    0.352628
  18 O :   -0.734924
  19 H :    0.365766
  20 H :    0.351199
  21 O :   -0.753480
  22 H :    0.348407
  23 H :    0.385562
Sum of atomic charges:    0.0000000

LOEWDIN ATOMIC CHARGES
----------------------
   0 O :   -0.309507
   1 H :    0.164509
   2 H :    0.188415
   3 O :   -0.274849
   4 H :    0.158789
   5 H :    0.169582
   6 O :   -0.315699
   7 H :    0.148339
   8 H :    0.140113
   9 O :   -0.311623
  10 H :    0.145541
  11 H :    0.166503
  12 O :   -0.297038
  13 H :    0.168166
  14 H :    0.147094
  15 O :   -0.305244
  16 H :    0.154892
  17 H :    0.139174
  18 O :   -0.357111
  19 H :    0.147457
  20 H :    0.141905
  21 O :   -0.314639
  22 H :    0.158208
  23 H :    0.147024

  Mayer bond orders larger than 0.100000
B(  0-O ,  1-H ) :   0.8412 B(  0-O ,  2-H ) :   0.8293 B(  3-O ,  4-H ) :   0.7927
B(  3-O ,  5-H ) :   0.8380 B(  6-O ,  7-H ) :   0.8038 B(  6-O ,  8-H ) :   0.7807
B(  6-O , 14-H ) :   0.1319 B(  9-O , 10-H ) :   0.7625 B(  9-O , 11-H ) :   0.8407
B(  9-O , 17-H ) :   0.1122 B( 10-H , 12-O ) :   0.1045 B( 12-O , 13-H ) :   0.8374
B( 12-O , 14-H ) :   0.7355 B( 15-O , 16-H ) :   0.7968 B( 15-O , 17-H ) :   0.7611
B( 18-O , 19-H ) :   0.8265 B( 18-O , 20-H ) :   0.8196 B( 21-O , 22-H ) :   0.8414
B( 21-O , 23-H ) :   0.7403

MP2 TOTAL ENERGY:     -610.602170385 Eh
FINAL SINGLE POINT ENERGY      -610.602170384651

DIPOLE MOMENT
-------------
                                X             Y             Z
Electronic contribution:     -0.27098      -0.02477       0.14391
Nuclear contribution   :     -0.37017      -0.98813       1.37221
                        -----------------------------------------
Total Dipole Moment    :     -0.64115      -1.01290       1.51612
                        -----------------------------------------
Magnitude (a.u.)       :      1.93279
Magnitude (Debye)      :      4.91276

Rotational constants in cm-1:     0.036824     0.021970     0.019405
Rotational constants in MHz :  1103.960529   658.630888   581.753360

                             ****ORCA TERMINATED NORMALLY****
TOTAL RUN TIME: 0 days 0 hours 3 minutes 32 seconds 631 msec
