                         Program Version 4.2.0 -  RELEASE  -
|  1> # 12mecn.remya.etal.2.mol6,9,11
|  2> ! MP2 def2-TZVP EnGrad TightSCF
|  3>
|  4> %pal
|  5>     nprocs 6
|  6> end
|  7>
|  8> %maxcore 8000
|  9>
| 10> %scf
| 11>     ConvForced true
| 12> end
| 13>
| 14> *xyz 0 1
| 15> C   5.300864000  -2.920090000   1.401103000
| 16> H   5.986071000  -2.139770000   1.737487000
| 17> H   5.636642000  -3.888750000   1.778233000
| 18> H   4.307359000  -2.697240000   1.799307000
| 19> C   5.234791000  -2.933140000  -0.043290000
| 20> N   5.170868000  -2.941760000  -1.207750000
| 21> C   0.923766000   4.000693000  -1.575910000
| 22> H   0.011949000   4.478423000  -1.939550000
| 23> H   0.947903000   2.966558000  -1.929960000
| 24> H   1.805950000   4.519548000  -1.956520000
| 25> C   0.942834000   3.994846000  -0.131200000
| 26> N   0.960035000   3.982544000   1.035639000
| 27> C   4.214163000   3.378139000   1.593627000
| 28> H   3.242643000   3.657109000   2.012358000
| 29> H   4.969258000   4.086643000   1.941290000
| 30> H   4.482966000   2.372549000   1.931698000
| 31> C   4.130759000   3.388436000   0.150192000
| 32> N   4.050180000   3.381449000  -1.013420000
| 33> *
| 34>
| 35>                          ****END OF INPUT****

CARTESIAN COORDINATES (ANGSTROEM)
---------------------------------
  C      5.300864   -2.920090    1.401103
  H      5.986071   -2.139770    1.737487
  H      5.636642   -3.888750    1.778233
  H      4.307359   -2.697240    1.799307
  C      5.234791   -2.933140   -0.043290
  N      5.170868   -2.941760   -1.207750
  C      0.923766    4.000693   -1.575910
  H      0.011949    4.478423   -1.939550
  H      0.947903    2.966558   -1.929960
  H      1.805950    4.519548   -1.956520
  C      0.942834    3.994846   -0.131200
  N      0.960035    3.982544    1.035639
  C      4.214163    3.378139    1.593627
  H      3.242643    3.657109    2.012358
  H      4.969258    4.086643    1.941290
  H      4.482966    2.372549    1.931698
  C      4.130759    3.388436    0.150192
  N      4.050180    3.381449   -1.013420

 Total Charge           Charge          ....    0
 Multiplicity           Mult            ....    1
 Number of Electrons    NEL             ....   66
 Basis Dimension        Dim             ....  333

ORBITAL ENERGIES
----------------

  NO   OCC          E(Eh)            E(eV)
   0   2.0000     -15.573474      -423.7758
   1   2.0000     -15.571642      -423.7259
   2   2.0000     -15.570602      -423.6976
   3   2.0000     -11.286079      -307.1098
   4   2.0000     -11.283002      -307.0261
   5   2.0000     -11.282885      -307.0229
   6   2.0000     -11.280177      -306.9492
   7   2.0000     -11.274268      -306.7884
   8   2.0000     -11.271140      -306.7033
   9   2.0000      -1.218336       -33.1526
  10   2.0000      -1.214918       -33.0596
  11   2.0000      -1.213669       -33.0256
  12   2.0000      -1.044875       -28.4325
  13   2.0000      -1.037334       -28.2273
  14   2.0000      -1.033799       -28.1311
  15   2.0000      -0.702167       -19.1069
  16   2.0000      -0.696004       -18.9392
  17   2.0000      -0.691178       -18.8079
  18   2.0000      -0.634013       -17.2524
  19   2.0000      -0.631814       -17.1925
  20   2.0000      -0.631291       -17.1783
  21   2.0000      -0.624413       -16.9911
  22   2.0000      -0.618423       -16.8282
  23   2.0000      -0.616254       -16.7691
  24   2.0000      -0.559174       -15.2159
  25   2.0000      -0.556039       -15.1306
  26   2.0000      -0.556027       -15.1303
  27   2.0000      -0.462770       -12.5926
  28   2.0000      -0.458952       -12.4887
  29   2.0000      -0.458292       -12.4708
  30   2.0000      -0.457768       -12.4565
  31   2.0000      -0.457150       -12.4397
  32   2.0000      -0.453394       -12.3375
  33   0.0000       0.108265         2.9460
  34   0.0000       0.129597         3.5265
  35   0.0000       0.144737         3.9385
  36   0.0000       0.167474         4.5572
  37   0.0000       0.170586         4.6419

MULLIKEN ATOMIC CHARGES
-----------------------
   0 C :   -0.282474
   1 H :    0.169930
   2 H :    0.173116
   3 H :    0.172469
   4 C :   -0.144841
   5 N :   -0.088207
   6 C :   -0.267901
   7 H :    0.170150
   8 H :    0.172587
   9 H :    0.190704
  10 C :   -0.112885
  11 N :   -0.151901
  12 C :   -0.286777
  13 H :    0.206084
  14 H :    0.167353
  15 H :    0.159923
  16 C :   -0.109407
  17 N :   -0.137924
Sum of atomic charges:   -0.0000000

LOEWDIN ATOMIC CHARGES
----------------------
   0 C :   -0.284527
   1 H :    0.150678
   2 H :    0.151552
   3 H :    0.152875
   4 C :   -0.219193
   5 N :    0.048612
   6 C :   -0.283282
   7 H :    0.148950
   8 H :    0.157270
   9 H :    0.156600
  10 C :   -0.208831
  11 N :    0.027039
  12 C :   -0.283291
  13 H :    0.157168
  14 H :    0.149975
  15 H :    0.150744
  16 C :   -0.209441
  17 N :    0.037102

  Mayer bond orders larger than 0.100000
B(  0-C ,  1-H ) :   0.9177 B(  0-C ,  2-H ) :   0.9160 B(  0-C ,  3-H ) :   0.9171
B(  0-C ,  4-C ) :   0.9021 B(  4-C ,  5-N ) :   2.8354 B(  6-C ,  7-H ) :   0.9120
B(  6-C ,  8-H ) :   0.9143 B(  6-C ,  9-H ) :   0.9075 B(  6-C , 10-C ) :   0.9084
B( 10-C , 11-N ) :   2.7737 B( 12-C , 13-H ) :   0.9020 B( 12-C , 14-H ) :   0.9166
B( 12-C , 15-H ) :   0.9164 B( 12-C , 16-C ) :   0.9008 B( 16-C , 17-N ) :   2.7821

MP2 TOTAL ENERGY:     -397.458704505 Eh
FINAL SINGLE POINT ENERGY      -397.458704505192

DIPOLE MOMENT
-------------
                                X             Y             Z
Electronic contribution:     -0.28054      -0.00186      -3.18476
Nuclear contribution   :      0.41876       0.02364       4.65354
                        -----------------------------------------
Total Dipole Moment    :      0.13821       0.02178       1.46878
                        -----------------------------------------
Magnitude (a.u.)       :      1.47543
Magnitude (Debye)      :      3.75024

Rotational constants in cm-1:     0.053515     0.010555     0.010091
Rotational constants in MHz :  1604.344535   316.426725   302.523666

                             ****ORCA TERMINATED NORMALLY****
TOTAL RUN TIME: 0 days 0 hours 3 minutes 45 seconds 67 msec
