                         Program Version 4.2.0 -  RELEASE  -
|  1> # 12meoh.boyd.etal.mol5,10
|  2> ! MP2 def2-TZVP EnGrad TightSCF
|  3>
|  4> %pal
|  5>     nprocs 6
|  6> end
|  7>
|  8> %maxcore 8000
|  9>
| 10> %scf
| 11>     ConvForced true
| 12> end
| 13>
| 14> *xyz 0 1
| 15> O  -0.662721750   1.449094618  -1.383082065
| 16> H   0.064188300   2.119867608  -1.465650660
| 17> C  -0.353319239   0.341218776  -2.229326771
| 18> H  -1.072358530  -0.454743281  -2.019906495
| 19> H   0.657636746  -0.044472139  -2.042736771
| 20> H  -0.434616607   0.624733901  -3.287793021
| 21> O  -5.201143618   0.064582726  -0.172223772
| 22> H  -4.686891530   0.869258890   0.107806143
| 23> C  -6.513192168   0.171391798   0.359883449
| 24> H  -7.049381312  -0.749234190   0.111361174
| 25> H  -7.057741163   1.017801101  -0.081819420
| 26> H  -6.514770575   0.292264928   1.453058834
| 27> *
| 28>
| 29>                          ****END OF INPUT****

CARTESIAN COORDINATES (ANGSTROEM)
---------------------------------
  O     -0.662722    1.449095   -1.383082
  H      0.064188    2.119868   -1.465651
  C     -0.353319    0.341219   -2.229327
  H     -1.072359   -0.454743   -2.019906
  H      0.657637   -0.044472   -2.042737
  H     -0.434617    0.624734   -3.287793
  O     -5.201144    0.064583   -0.172224
  H     -4.686892    0.869259    0.107806
  C     -6.513192    0.171392    0.359883
  H     -7.049381   -0.749234    0.111361
  H     -7.057741    1.017801   -0.081819
  H     -6.514771    0.292265    1.453059

 Total Charge           Charge          ....    0
 Multiplicity           Mult            ....    1
 Number of Electrons    NEL             ....   36
 Basis Dimension        Dim             ....  172

ORBITAL ENERGIES
----------------

  NO   OCC          E(Eh)            E(eV)
   0   2.0000     -20.555843      -559.3529
   1   2.0000     -20.551201      -559.2266
   2   2.0000     -11.269544      -306.6599
   3   2.0000     -11.266663      -306.5815
   4   2.0000      -1.343963       -36.5711
   5   2.0000      -1.341417       -36.5018
   6   2.0000      -0.917925       -24.9780
   7   2.0000      -0.914149       -24.8753
   8   2.0000      -0.679233       -18.4829
   9   2.0000      -0.676438       -18.4068
  10   2.0000      -0.614882       -16.7318
  11   2.0000      -0.611602       -16.6425
  12   2.0000      -0.588665       -16.0184
  13   2.0000      -0.585908       -15.9434
  14   2.0000      -0.498679       -13.5698
  15   2.0000      -0.494448       -13.4546
  16   2.0000      -0.448014       -12.1911
  17   2.0000      -0.442823       -12.0498
  18   0.0000       0.131554         3.5798
  19   0.0000       0.145208         3.9513
  20   0.0000       0.177540         4.8311
  21   0.0000       0.180097         4.9007
  22   0.0000       0.231265         6.2930

MULLIKEN ATOMIC CHARGES
-----------------------
   0 O :   -0.502987
   1 H :    0.320996
   2 C :   -0.174904
   3 H :    0.138223
   4 H :    0.109284
   5 H :    0.109578
   6 O :   -0.497206
   7 H :    0.327086
   8 C :   -0.172489
   9 H :    0.126839
  10 H :    0.107590
  11 H :    0.107991
Sum of atomic charges:    0.0000000

LOEWDIN ATOMIC CHARGES
----------------------
   0 O :   -0.115004
   1 H :    0.188146
   2 C :   -0.376429
   3 H :    0.112288
   4 H :    0.095365
   5 H :    0.095721
   6 O :   -0.106593
   7 H :    0.193539
   8 C :   -0.386078
   9 H :    0.109512
  10 H :    0.094640
  11 H :    0.094893

  Mayer bond orders larger than 0.100000
B(  0-O ,  1-H ) :   0.8430 B(  0-O ,  2-C ) :   0.9201 B(  2-C ,  3-H ) :   0.9365
B(  2-C ,  4-H ) :   0.9396 B(  2-C ,  5-H ) :   0.9390 B(  6-O ,  7-H ) :   0.8383
B(  6-O ,  8-C ) :   0.9316 B(  8-C ,  9-H ) :   0.9380 B(  8-C , 10-H ) :   0.9389
B(  8-C , 11-H ) :   0.9385

MP2 TOTAL ENERGY:     -231.013984072 Eh
FINAL SINGLE POINT ENERGY      -231.013984071701

DIPOLE MOMENT
-------------
                                X             Y             Z
Electronic contribution:      1.12687       1.02021       0.36740
Nuclear contribution   :     -0.74665      -0.53639      -0.37967
                        -----------------------------------------
Total Dipole Moment    :      0.38022       0.48382      -0.01226
                        -----------------------------------------
Magnitude (a.u.)       :      0.61546
Magnitude (Debye)      :      1.56439

Rotational constants in cm-1:     0.700963     0.030603     0.029663
Rotational constants in MHz : 21014.351256   917.448290   889.285086

                             ****ORCA TERMINATED NORMALLY****
TOTAL RUN TIME: 0 days 0 hours 0 minutes 18 seconds 159 msec
