                         Program Version 4.2.0 -  RELEASE  -
|  1> ! MP2 def2-TZVP EnGrad TightSCF FrozenCore
|  2>
|  3> %pal
|  4>     nprocs 12
|  5> end
|  6>
|  7> %maxcore 8000
|  8>
|  9> %scf
| 10>     ConvForced true
| 11> end
| 12>
| 13> *xyz 0 1
| 14> C     2.630265     2.534915     0.221739
| 15> H     1.609093     2.899154     0.364929
| 16> H     3.290858     3.374043    -0.011306
| 17> H     2.979469     2.039480     1.133191
| 18> C     2.640520     1.571521    -0.875349
| 19> N     2.659957     0.800768    -1.745129
| 20> C    -0.190102    -0.355515    -2.633074
| 21> H    -1.194192    -0.575391    -3.005085
| 22> H     0.566283    -0.632399    -3.371569
| 23> H    -0.105111     0.714222    -2.427561
| 24> C     0.038943    -1.095392    -1.395743
| 25> N     0.215475    -1.704037    -0.420236
| 26> C    -3.333119     2.260518    -0.074876
| 27> H    -3.614961     1.598527     0.749375
| 28> H    -3.830872     1.916139    -0.984154
| 29> H    -3.632304     3.286731     0.153643
| 30> C    -1.886265     2.194455    -0.254962
| 31> N    -0.731957     2.157560    -0.387134
| 32> C     0.360384     0.184239     2.212383
| 33> H     0.677594     0.476211     1.207548
| 34> H     0.796863    -0.792936     2.429843
| 35> H     0.726804     0.912179     2.941241
| 36> C    -1.096630     0.108556     2.253408
| 37> N    -2.257210     0.049132     2.291248
| 38> C     3.496367    -2.193244    -0.302066
| 39> H     2.687561    -2.915608    -0.168769
| 40> H     4.458607    -2.710627    -0.335449
| 41> H     3.332314    -1.654324    -1.239993
| 42> C     3.482838    -1.234333     0.799004
| 43> N     3.480847    -0.467308     1.672299
| 44> C    -3.009569    -2.543206     0.510980
| 45> H    -1.940336    -2.681376     0.697785
| 46> H    -3.448143    -3.483876     0.168027
| 47> H    -3.489197    -2.221593     1.438335
| 48> C    -3.178793    -1.512796    -0.509476
| 49> N    -3.309878    -0.702809    -1.332740
| 50> *
| 51>
| 52>                          ****END OF INPUT****

CARTESIAN COORDINATES (ANGSTROEM)
---------------------------------
  C      2.630265    2.534915    0.221739
  H      1.609093    2.899154    0.364929
  H      3.290858    3.374043   -0.011306
  H      2.979469    2.039480    1.133191
  C      2.640520    1.571521   -0.875349
  N      2.659957    0.800768   -1.745129
  C     -0.190102   -0.355515   -2.633074
  H     -1.194192   -0.575391   -3.005085
  H      0.566283   -0.632399   -3.371569
  H     -0.105111    0.714222   -2.427561
  C      0.038943   -1.095392   -1.395743
  N      0.215475   -1.704037   -0.420236
  C     -3.333119    2.260518   -0.074876
  H     -3.614961    1.598527    0.749375
  H     -3.830872    1.916139   -0.984154
  H     -3.632304    3.286731    0.153643
  C     -1.886265    2.194455   -0.254962
  N     -0.731957    2.157560   -0.387134
  C      0.360384    0.184239    2.212383
  H      0.677594    0.476211    1.207548
  H      0.796863   -0.792936    2.429843
  H      0.726804    0.912179    2.941241
  C     -1.096630    0.108556    2.253408
  N     -2.257210    0.049132    2.291248
  C      3.496367   -2.193244   -0.302066
  H      2.687561   -2.915608   -0.168769
  H      4.458607   -2.710627   -0.335449
  H      3.332314   -1.654324   -1.239993
  C      3.482838   -1.234333    0.799004
  N      3.480847   -0.467308    1.672299
  C     -3.009569   -2.543206    0.510980
  H     -1.940336   -2.681376    0.697785
  H     -3.448143   -3.483876    0.168027
  H     -3.489197   -2.221593    1.438335
  C     -3.178793   -1.512796   -0.509476
  N     -3.309878   -0.702809   -1.332740

 Total Charge           Charge          ....    0
 Multiplicity           Mult            ....    1
 Number of Electrons    NEL             ....  132
 Basis Dimension        Dim             ....  666

ORBITAL ENERGIES
----------------

  NO   OCC          E(Eh)            E(eV)
   0   2.0000     -15.566349      -423.5819
   1   2.0000     -15.563751      -423.5112
   2   2.0000     -15.563186      -423.4958
   3   2.0000     -15.563180      -423.4957
   4   2.0000     -15.561015      -423.4367
   5   2.0000     -15.560003      -423.4092
   6   2.0000     -11.283186      -307.0311
   7   2.0000     -11.278190      -306.8952
   8   2.0000     -11.278142      -306.8938
   9   2.0000     -11.277834      -306.8855
  10   2.0000     -11.277737      -306.8828
  11   2.0000     -11.275913      -306.8332
  12   2.0000     -11.264060      -306.5106
  13   2.0000     -11.263598      -306.4981
  14   2.0000     -11.263279      -306.4894
  15   2.0000     -11.263235      -306.4882
  16   2.0000     -11.255668      -306.2823
  17   2.0000     -11.253928      -306.2349
  18   2.0000      -1.218017       -33.1439
  19   2.0000      -1.214921       -33.0597
  20   2.0000      -1.213467       -33.0201
  21   2.0000      -1.210995       -32.9529
  22   2.0000      -1.210044       -32.9270
  23   2.0000      -1.209574       -32.9142
  24   2.0000      -1.025184       -27.8967
  25   2.0000      -1.024004       -27.8646
  26   2.0000      -1.022603       -27.8264
  27   2.0000      -1.022318       -27.8187
  28   2.0000      -1.016248       -27.6535
  29   2.0000      -1.014838       -27.6151
  30   2.0000      -0.685946       -18.6655
  31   2.0000      -0.684141       -18.6164
  32   2.0000      -0.682360       -18.5679
  33   2.0000      -0.680937       -18.5292
  34   2.0000      -0.677820       -18.4444
  35   2.0000      -0.675301       -18.3759
  36   2.0000      -0.623288       -16.9605
  37   2.0000      -0.621685       -16.9169
  38   2.0000      -0.619719       -16.8634
  39   2.0000      -0.616433       -16.7740
  40   2.0000      -0.615820       -16.7573
  41   2.0000      -0.613728       -16.7004
  42   2.0000      -0.611646       -16.6437
  43   2.0000      -0.606218       -16.4960
  44   2.0000      -0.605517       -16.4770
  45   2.0000      -0.601178       -16.3589
  46   2.0000      -0.599322       -16.3084
  47   2.0000      -0.594997       -16.1907
  48   2.0000      -0.556955       -15.1555
  49   2.0000      -0.554090       -15.0776
  50   2.0000      -0.552693       -15.0395
  51   2.0000      -0.550512       -14.9802
  52   2.0000      -0.549987       -14.9659
  53   2.0000      -0.548486       -14.9251
  54   2.0000      -0.465029       -12.6541
  55   2.0000      -0.462706       -12.5909
  56   2.0000      -0.461787       -12.5659
  57   2.0000      -0.457825       -12.4580
  58   2.0000      -0.456599       -12.4247
  59   2.0000      -0.456472       -12.4212
  60   2.0000      -0.453333       -12.3358
  61   2.0000      -0.451578       -12.2881
  62   2.0000      -0.450845       -12.2681
  63   2.0000      -0.449555       -12.2330
  64   2.0000      -0.446032       -12.1372
  65   2.0000      -0.444685       -12.1005
  66   0.0000       0.129093         3.5128
  67   0.0000       0.147485         4.0133
  68   0.0000       0.148850         4.0504
  69   0.0000       0.155832         4.2404
  70   0.0000       0.163752         4.4559

MULLIKEN ATOMIC CHARGES
-----------------------
   0 C :   -0.314885
   1 H :    0.191745
   2 H :    0.170109
   3 H :    0.195755
   4 C :   -0.067431
   5 N :   -0.177442
   6 C :   -0.273489
   7 H :    0.187688
   8 H :    0.170854
   9 H :    0.191444
  10 C :   -0.040351
  11 N :   -0.233183
  12 C :   -0.286704
  13 H :    0.197081
  14 H :    0.186052
  15 H :    0.167942
  16 C :   -0.049557
  17 N :   -0.212284
  18 C :   -0.283950
  19 H :    0.174481
  20 H :    0.178481
  21 H :    0.169285
  22 C :   -0.062912
  23 N :   -0.177136
  24 C :   -0.287423
  25 H :    0.179567
  26 H :    0.170081
  27 H :    0.192297
  28 C :   -0.088353
  29 N :   -0.166851
  30 C :   -0.291443
  31 H :    0.190103
  32 H :    0.168162
  33 H :    0.185659
  34 C :   -0.072018
  35 N :   -0.181376
Sum of atomic charges:   -0.0000000

LOEWDIN ATOMIC CHARGES
----------------------
   0 C :   -0.287768
   1 H :    0.151072
   2 H :    0.148363
   3 H :    0.153322
   4 C :   -0.200052
   5 N :    0.033496
   6 C :   -0.285606
   7 H :    0.151132
   8 H :    0.150163
   9 H :    0.154539
  10 C :   -0.196656
  11 N :    0.023058
  12 C :   -0.281995
  13 H :    0.156386
  14 H :    0.154262
  15 H :    0.146885
  16 C :   -0.191201
  17 N :    0.025908
  18 C :   -0.286701
  19 H :    0.152249
  20 H :    0.154387
  21 H :    0.149369
  22 C :   -0.197331
  23 N :    0.024996
  24 C :   -0.284338
  25 H :    0.152545
  26 H :    0.146964
  27 H :    0.154994
  28 C :   -0.201096
  29 N :    0.028056
  30 C :   -0.284833
  31 H :    0.154483
  32 H :    0.146683
  33 H :    0.153596
  34 C :   -0.199055
  35 N :    0.029725

  Mayer bond orders larger than 0.100000
B(  0-C ,  1-H ) :   0.9116 B(  0-C ,  2-H ) :   0.9099 B(  0-C ,  3-H ) :   0.9078
B(  0-C ,  4-C ) :   0.8918 B(  4-C ,  5-N ) :   2.7368 B(  6-C ,  7-H ) :   0.9034
B(  6-C ,  8-H ) :   0.9132 B(  6-C ,  9-H ) :   0.9131 B(  6-C , 10-C ) :   0.8905
B( 10-C , 11-N ) :   2.6614 B( 12-C , 13-H ) :   0.9091 B( 12-C , 14-H ) :   0.9136
B( 12-C , 15-H ) :   0.9107 B( 12-C , 16-C ) :   0.8882 B( 16-C , 17-N ) :   2.6921
B( 18-C , 19-H ) :   0.9057 B( 18-C , 20-H ) :   0.9109 B( 18-C , 21-H ) :   0.9104
B( 18-C , 22-C ) :   0.9196 B( 22-C , 23-N ) :   2.7374 B( 24-C , 25-H ) :   0.9134
B( 24-C , 26-H ) :   0.9097 B( 24-C , 27-H ) :   0.9087 B( 24-C , 28-C ) :   0.9003
B( 28-C , 29-N ) :   2.7494 B( 30-C , 31-H ) :   0.9106 B( 30-C , 32-H ) :   0.9105
B( 30-C , 33-H ) :   0.9137 B( 30-C , 34-C ) :   0.8938 B( 34-C , 35-N ) :   2.7301

MP2 TOTAL ENERGY:     -794.957999627 Eh
FINAL SINGLE POINT ENERGY      -794.957999626634

DIPOLE MOMENT
-------------
                                X             Y             Z
Electronic contribution:      0.00788       0.34940       0.12036
Nuclear contribution   :     -0.13017      -0.45357      -0.26118
                        -----------------------------------------
Total Dipole Moment    :     -0.12229      -0.10416      -0.14083
                        -----------------------------------------
Magnitude (a.u.)       :      0.21363
Magnitude (Debye)      :      0.54300

Rotational constants in cm-1:     0.015012     0.008410     0.007827
Rotational constants in MHz :   450.045011   252.135684   234.635781

                             ****ORCA TERMINATED NORMALLY****
TOTAL RUN TIME: 0 days 0 hours 47 minutes 38 seconds 669 msec
