   * xtb version 6.3.3 (5b13467) compiled by 'ehlert@majestix' on 2020-09-17
          program call               : /ihome/jkeith/amm503/codes/xtb-6.3.3/bin/xtb ./10h2o.abc0.iter1.xyz --opt vtight --gfn 2 --charge 0
          number of atoms            :                    30
          number of electrons        :                    80
          charge                     :                     0
          spin                       :                   0.0

   ID    Z sym.   atoms
    1    8 O      1, 4, 7, 10, 13, 16, 19, 22, 25, 28
    2    1 H      2, 3, 5, 6, 8, 9, 11, 12, 14, 15, 17, 18, 20, 21, 23, 24,
                  26, 27, 29, 30

          :  Hamiltonian                  GFN2-xTB          :
 * total energy  :   -50.8459743 Eh     change       -0.7407195E-09 Eh
 * total energy  :   -50.8517249 Eh     change       -0.5750633E-02 Eh
 * total energy  :   -50.8534411 Eh     change       -0.1716138E-02 Eh
 * total energy  :   -50.8538686 Eh     change       -0.4275820E-03 Eh
 * total energy  :   -50.8540938 Eh     change       -0.2251980E-03 Eh
 * total energy  :   -50.8541877 Eh     change       -0.9389038E-04 Eh
 * total energy  :   -50.8542276 Eh     change       -0.3981956E-04 Eh
 * total energy  :   -50.8542553 Eh     change       -0.2775699E-04 Eh
 * total energy  :   -50.8542816 Eh     change       -0.2629449E-04 Eh
 * total energy  :   -50.8542917 Eh     change       -0.1007739E-04 Eh
 * total energy  :   -50.8542511 Eh     change       -0.1282470E-03 Eh
 * total energy  :   -50.8542799 Eh     change       -0.2880417E-04 Eh
 * total energy  :   -50.8542947 Eh     change       -0.1489307E-04 Eh
 * total energy  :   -50.8543016 Eh     change       -0.6830580E-05 Eh
 * total energy  :   -50.8543064 Eh     change       -0.4817389E-05 Eh
 * total energy  :   -50.8543095 Eh     change       -0.3094730E-05 Eh
 * total energy  :   -50.8543109 Eh     change       -0.1440393E-05 Eh
 * total energy  :   -50.8543112 Eh     change       -0.3130447E-06 Eh
 * total energy  :   -50.8543113 Eh     change       -0.8929678E-07 Eh
   *** GEOMETRY OPTIMIZATION CONVERGED AFTER 389 ITERATIONS ***

 final structure:
================
30
 xtb: 6.3.3 (5b13467)
O         0.23703863916912   -0.73787525349844   -2.55592811507191
H         0.61560007742628   -1.43045457317922   -1.99386422107163
H        -0.69839429257031   -0.66185356512632   -2.25931191999094
O         1.22217911897149    1.01280797646909    2.15227073999614
H         1.81203488115837    1.20746935255548    2.88025504388028
H         1.75725652204912    0.50190472167681    1.48321706373650
O        -2.21494969242981    1.60690659138930    0.24267576018811
H        -1.32542892871220    2.05114619044495    0.15921734428544
H        -2.87001790420409    2.30391914887016    0.21512920075105
O        -2.14855946131645   -0.66895002142799   -1.34031538256250
H        -1.97050615442397   -1.33007687810322   -0.65484382776648
H        -2.24616878717510    0.17321101213997   -0.86553808201238
O         0.18228671654278    2.65133332379355    0.17139427542638
H         0.56702469620618    2.22746724461006    0.95732839533570
H         0.67193494076940    2.27649229992921   -0.58326922508769
O         2.55657968128860   -0.22209819866393    0.26946490219147
H         2.11153112662646   -1.05374493906151    0.03801926000787
H         2.37853896486028    0.37844492816544   -0.47657840212524
O        -1.28512960826411   -2.25687481374979    0.82884755806068
H        -1.76411294981459   -2.92277407081747    1.32212918113938
H        -1.27283349573081   -1.43728020152727    1.40584851228469
O        -1.30760389758939   -0.06562652652078    2.22640523029343
H        -0.40463185143086    0.29053948302313    2.30402246421457
H        -1.76712843513901    0.54155061727594    1.61874191023420
O         1.05984365744739   -2.44563407105345   -0.47953655163617
H         0.21148930984286   -2.39254868121404    0.01083093027761
H         1.32066370846458   -3.36674892236289   -0.48804652607653
O         1.59455659098823    1.33884388659227   -1.78135800949907
H         1.03551589577901    0.58243307053941   -2.12720193517060
H         1.99795376121278    1.74648977882967   -2.54737180422679

          :  Hamiltonian                  GFN2-xTB          :
         :: total energy             -50.854311334048 Eh    ::
         :: gradient norm              0.000092996005 Eh/a0 ::
         :: HOMO-LUMO gap             10.755449886730 eV    ::
         :: SCC energy               -51.155224495346 Eh    ::
         :: -> dispersion             -0.014550886887 Eh    ::
         :: repulsion energy           0.300290619841 Eh    ::

    * Orbital Energies and Occupations

         #    Occupation            Energy/Eh            Energy/eV
      -------------------------------------------------------------
         1        2.0000           -0.6889058             -18.7461
       ...           ...                  ...                  ...
        28        2.0000           -0.4916716             -13.3791
        29        2.0000           -0.4884536             -13.2915
        30        2.0000           -0.4774698             -12.9926
        31        2.0000           -0.4536327             -12.3440
        32        2.0000           -0.4491181             -12.2211
        33        2.0000           -0.4445978             -12.0981
        34        2.0000           -0.4411390             -12.0040
        35        2.0000           -0.4400799             -11.9752
        36        2.0000           -0.4318339             -11.7508
        37        2.0000           -0.4311115             -11.7311
        38        2.0000           -0.4274461             -11.6314
        39        2.0000           -0.4227529             -11.5037
        40        2.0000           -0.4188053             -11.3963 (HOMO)
        41                         -0.0235498              -0.6408 (LUMO)
        42                          0.0327674               0.8916
        43                          0.0395489               1.0762
        44                          0.0635755               1.7300
        45                          0.1086652               2.9569
        46                          0.1328576               3.6152
        47                          0.1572287               4.2784
        48                          0.1679054               4.5689
        49                          0.2169069               5.9023
        50                          0.2216083               6.0303
        51                          0.2933751               7.9831
       ...                                ...                  ...
        60                          0.3356580               9.1337
      -------------------------------------------------------------
                  HL-Gap            0.3952555 Eh           10.7554 eV

     #   Z          covCN         q      C6AA      Î±(0)
     1   8 O        1.609    -0.632    25.963     6.877
     2   1 H        0.804     0.310     0.691     1.306
     3   1 H        0.802     0.329     0.641     1.258
     4   8 O        1.605    -0.631    25.944     6.874
     5   1 H        0.806     0.279     0.787     1.393
     6   1 H        0.801     0.340     0.613     1.230
     7   8 O        1.605    -0.631    25.941     6.874
     8   1 H        0.801     0.339     0.614     1.231
     9   1 H        0.806     0.279     0.788     1.394
    10   8 O        1.608    -0.627    25.837     6.860
    11   1 H        0.804     0.309     0.694     1.309
    12   1 H        0.804     0.316     0.676     1.291
    13   8 O        1.609    -0.629    25.886     6.867
    14   1 H        0.804     0.318     0.670     1.286
    15   1 H        0.804     0.322     0.659     1.276
    16   8 O        1.609    -0.627    25.848     6.862
    17   1 H        0.804     0.318     0.669     1.284
    18   1 H        0.804     0.323     0.657     1.273
    19   8 O        1.604    -0.637    26.093     6.894
    20   1 H        0.806     0.280     0.785     1.391
    21   1 H        0.801     0.343     0.605     1.222
    22   8 O        1.610    -0.628    25.878     6.866
    23   1 H        0.804     0.322     0.658     1.274
    24   1 H        0.804     0.323     0.656     1.273
    25   8 O        1.608    -0.613    25.511     6.817
    26   1 H        0.803     0.338     0.618     1.235
    27   1 H        0.806     0.282     0.777     1.384
    28   8 O        1.604    -0.635    26.033     6.886
    29   1 H        0.801     0.342     0.609     1.226
    30   1 H        0.806     0.279     0.789     1.395

Wiberg/Mayer (AO) data.
largest (>0.10) Wiberg bond orders for each atom

     #   Z sym  total        # sym  WBO       # sym  WBO       # sym  WBO
 ---------------------------------------------------------------------------
     1   8 O    1.896 --     2 H    0.871     3 H    0.825    29 H    0.103
     2   1 H    0.904 --     1 O    0.871
     3   1 H    0.892 --     1 O    0.825
     4   8 O    1.863 --     5 H    0.914     6 H    0.788
     5   1 H    0.922 --     4 O    0.914
     6   1 H    0.885 --     4 O    0.788
     7   8 O    1.864 --     9 H    0.914     8 H    0.788
     8   1 H    0.885 --     7 O    0.788
     9   1 H    0.922 --     7 O    0.914
    10   8 O    1.867 --    11 H    0.871    12 H    0.859
    11   1 H    0.904 --    10 O    0.871
    12   1 H    0.900 --    10 O    0.859
    13   8 O    1.893 --    14 H    0.858    15 H    0.849
    14   1 H    0.899 --    13 O    0.858
    15   1 H    0.897 --    13 O    0.849
    16   8 O    1.893 --    17 H    0.859    18 H    0.852
    17   1 H    0.899 --    16 O    0.859
    18   1 H    0.896 --    16 O    0.852
    19   8 O    1.862 --    20 H    0.913    21 H    0.776
    20   1 H    0.922 --    19 O    0.913
    21   1 H    0.882 --    19 O    0.776    22 O    0.104
    22   8 O    1.900 --    24 H    0.851    23 H    0.851    21 H    0.104
    23   1 H    0.896 --    22 O    0.851
    24   1 H    0.896 --    22 O    0.851
    25   8 O    1.867 --    27 H    0.914    26 H    0.826
    26   1 H    0.886 --    25 O    0.826
    27   1 H    0.920 --    25 O    0.914
    28   8 O    1.865 --    30 H    0.914    29 H    0.778
    29   1 H    0.883 --    28 O    0.778     1 O    0.103
    30   1 H    0.922 --    28 O    0.914
 ---------------------------------------------------------------------------

molecular dipole:
                 x           y           z       tot (Debye)
 q only:        0.260      -0.425       0.513
   full:        0.339      -0.598       0.735       2.557

           -------------------------------------------------
          | TOTAL ENERGY              -50.854311334048 Eh   |
          | GRADIENT NORM               0.000092996005 Eh/Î± |
          | HOMO-LUMO GAP              10.755449886730 eV   |
           -------------------------------------------------

 * finished run on 2021/01/12 at 15:02:43.335
normal termination of xtb
