                         Program Version 4.2.0 -  RELEASE  -
|  1> ! MP2 def2-TZVP EnGrad TightSCF FrozenCore
|  2>
|  3> %pal
|  4>     nprocs 8
|  5> end
|  6>
|  7> %maxcore 8000
|  8>
|  9> %scf
| 10>     ConvForced true
| 11> end
| 12>
| 13> *xyz 0 1
| 14> O          0.00000        0.00000        0.00000
| 15> H          0.96490        0.00000        0.00000
| 16> H         -0.24900        0.00000       -0.94846
| 17> O         -0.85939       -0.39190       -2.66553
| 18> H         -1.51437       -1.10085       -2.49815
| 19> H         -0.24671       -0.78017       -3.30216
| 20> O         -2.48913       -2.51449       -1.75285
| 21> H         -2.50100       -3.41056       -2.11135
| 22> H         -1.97971       -2.56989       -0.89785
| 23> O         -1.43625       -2.29862        0.68961
| 24> H         -2.30454       -1.99045        1.00735
| 25> H         -0.89194       -1.48546        0.61583
| 26> O         -4.23495       -1.62352        0.47658
| 27> H         -4.86824       -2.30971        0.72285
| 28> H         -3.99244       -1.83983       -0.44098
| 29> *
| 30>
| 31>
| 32>                          ****END OF INPUT****

CARTESIAN COORDINATES (ANGSTROEM)
---------------------------------
  O      0.000000    0.000000    0.000000
  H      0.964900    0.000000    0.000000
  H     -0.249000    0.000000   -0.948460
  O     -0.859390   -0.391900   -2.665530
  H     -1.514370   -1.100850   -2.498150
  H     -0.246710   -0.780170   -3.302160
  O     -2.489130   -2.514490   -1.752850
  H     -2.501000   -3.410560   -2.111350
  H     -1.979710   -2.569890   -0.897850
  O     -1.436250   -2.298620    0.689610
  H     -2.304540   -1.990450    1.007350
  H     -0.891940   -1.485460    0.615830
  O     -4.234950   -1.623520    0.476580
  H     -4.868240   -2.309710    0.722850
  H     -3.992440   -1.839830   -0.440980

 Total Charge           Charge          ....    0
 Multiplicity           Mult            ....    1
 Number of Electrons    NEL             ....   50
 Basis Dimension        Dim             ....  215

ORBITAL ENERGIES
----------------

  NO   OCC          E(Eh)            E(eV)
   0   2.0000     -20.570703      -559.7573
   1   2.0000     -20.562710      -559.5398
   2   2.0000     -20.562555      -559.5356
   3   2.0000     -20.554448      -559.3150
   4   2.0000     -20.543370      -559.0135
   5   2.0000      -1.365032       -37.1444
   6   2.0000      -1.350675       -36.7537
   7   2.0000      -1.345597       -36.6156
   8   2.0000      -1.340248       -36.4700
   9   2.0000      -1.324173       -36.0326
  10   2.0000      -0.737210       -20.0605
  11   2.0000      -0.721030       -19.6202
  12   2.0000      -0.709290       -19.3008
  13   2.0000      -0.706774       -19.2323
  14   2.0000      -0.698746       -19.0138
  15   2.0000      -0.616244       -16.7689
  16   2.0000      -0.597489       -16.2585
  17   2.0000      -0.586782       -15.9672
  18   2.0000      -0.583475       -15.8772
  19   2.0000      -0.556743       -15.1497
  20   2.0000      -0.520945       -14.1756
  21   2.0000      -0.511016       -13.9055
  22   2.0000      -0.506158       -13.7733
  23   2.0000      -0.499262       -13.5856
  24   2.0000      -0.489326       -13.3152
  25   0.0000       0.111533         3.0350
  26   0.0000       0.139990         3.8093
  27   0.0000       0.155742         4.2379
  28   0.0000       0.172708         4.6996
  29   0.0000       0.233648         6.3579

MULLIKEN ATOMIC CHARGES
-----------------------
   0 O :   -0.722833
   1 H :    0.339663
   2 H :    0.384911
   3 O :   -0.721089
   4 H :    0.387195
   5 H :    0.338246
   6 O :   -0.759466
   7 H :    0.346920
   8 H :    0.383113
   9 O :   -0.740597
  10 H :    0.372327
  11 H :    0.389457
  12 O :   -0.702995
  13 H :    0.340518
  14 H :    0.364630
Sum of atomic charges:   -0.0000000

LOEWDIN ATOMIC CHARGES
----------------------
   0 O :   -0.311547
   1 H :    0.159957
   2 H :    0.154961
   3 O :   -0.311222
   4 H :    0.155189
   5 H :    0.159345
   6 O :   -0.324206
   7 H :    0.159254
   8 H :    0.147657
   9 O :   -0.304566
  10 H :    0.154923
  11 H :    0.153197
  12 O :   -0.311684
  13 H :    0.161905
  14 H :    0.156836

  Mayer bond orders larger than 0.100000
B(  0-O ,  1-H ) :   0.8485 B(  0-O ,  2-H ) :   0.7829 B(  3-O ,  4-H ) :   0.7863
B(  3-O ,  5-H ) :   0.8493 B(  6-O ,  7-H ) :   0.8423 B(  6-O ,  8-H ) :   0.7220
B(  8-H ,  9-O ) :   0.1290 B(  9-O , 10-H ) :   0.8057 B(  9-O , 11-H ) :   0.7759
B( 12-O , 13-H ) :   0.8487 B( 12-O , 14-H ) :   0.8143

MP2 TOTAL ENERGY:     -381.623457283 Eh
FINAL SINGLE POINT ENERGY      -381.623457283384

DIPOLE MOMENT
-------------
                                X             Y             Z
Electronic contribution:     -0.07022       0.29470       0.20175
Nuclear contribution   :      0.37988      -1.52310      -1.12247
                        -----------------------------------------
Total Dipole Moment    :      0.30966      -1.22840      -0.92072
                        -----------------------------------------
Magnitude (a.u.)       :      1.56608
Magnitude (Debye)      :      3.98065

Rotational constants in cm-1:     0.091272     0.053860     0.041608
Rotational constants in MHz :  2736.259240  1614.697162  1247.368786

                             ****ORCA TERMINATED NORMALLY****
TOTAL RUN TIME: 0 days 0 hours 1 minutes 18 seconds 121 msec
