                         Program Version 4.2.0 -  RELEASE  -
|  1> # 12mecn.remya.etal.2.mol5,8,10
|  2> ! MP2 def2-TZVP EnGrad TightSCF
|  3>
|  4> %pal
|  5>     nprocs 6
|  6> end
|  7>
|  8> %maxcore 8000
|  9>
| 10> %scf
| 11>     ConvForced true
| 12> end
| 13>
| 14> *xyz 0 1
| 15> C  -1.955700000   2.515080000   1.698463000
| 16> H  -2.923830000   2.883163000   2.049269000
| 17> H  -1.154850000   3.171830000   2.050990000
| 18> H  -1.790380000   1.506115000   2.087896000
| 19> C  -1.948230000   2.482156000   0.253672000
| 20> N  -1.937550000   2.462523000  -0.913150000
| 21> C   1.912641000  -2.468050000  -1.750510000
| 22> H   2.876947000  -2.793500000  -2.151200000
| 23> H   1.688016000  -1.463720000  -2.122170000
| 24> H   1.123460000  -3.154780000  -2.069590000
| 25> C   1.977850000  -2.444240000  -0.306900000
| 26> N   2.036566000  -2.426130000   0.858249000
| 27> C   4.602033000   0.321019000  -1.784800000
| 28> H   4.827650000  -0.662160000  -2.207910000
| 29> H   5.320558000   1.057980000  -2.148500000
| 30> H   3.601982000   0.643751000  -2.087520000
| 31> C   4.654967000   0.244048000  -0.343060000
| 32> N   4.691648000   0.166590000   0.820757000
| 33> *
| 34>
| 35>                          ****END OF INPUT****

CARTESIAN COORDINATES (ANGSTROEM)
---------------------------------
  C     -1.955700    2.515080    1.698463
  H     -2.923830    2.883163    2.049269
  H     -1.154850    3.171830    2.050990
  H     -1.790380    1.506115    2.087896
  C     -1.948230    2.482156    0.253672
  N     -1.937550    2.462523   -0.913150
  C      1.912641   -2.468050   -1.750510
  H      2.876947   -2.793500   -2.151200
  H      1.688016   -1.463720   -2.122170
  H      1.123460   -3.154780   -2.069590
  C      1.977850   -2.444240   -0.306900
  N      2.036566   -2.426130    0.858249
  C      4.602033    0.321019   -1.784800
  H      4.827650   -0.662160   -2.207910
  H      5.320558    1.057980   -2.148500
  H      3.601982    0.643751   -2.087520
  C      4.654967    0.244048   -0.343060
  N      4.691648    0.166590    0.820757

 Total Charge           Charge          ....    0
 Multiplicity           Mult            ....    1
 Number of Electrons    NEL             ....   66
 Basis Dimension        Dim             ....  333

ORBITAL ENERGIES
----------------

  NO   OCC          E(Eh)            E(eV)
   0   2.0000     -15.573029      -423.7637
   1   2.0000     -15.571077      -423.7106
   2   2.0000     -15.570978      -423.7078
   3   2.0000     -11.287900      -307.1594
   4   2.0000     -11.287664      -307.1530
   5   2.0000     -11.282435      -307.0107
   6   2.0000     -11.280863      -306.9679
   7   2.0000     -11.276365      -306.8455
   8   2.0000     -11.276277      -306.8431
   9   2.0000      -1.214734       -33.0546
  10   2.0000      -1.212102       -32.9830
  11   2.0000      -1.210823       -32.9482
  12   2.0000      -1.047062       -28.4920
  13   2.0000      -1.044242       -28.4153
  14   2.0000      -1.041814       -28.3492
  15   2.0000      -0.702306       -19.1107
  16   2.0000      -0.699506       -19.0345
  17   2.0000      -0.697801       -18.9881
  18   2.0000      -0.641250       -17.4493
  19   2.0000      -0.637580       -17.3494
  20   2.0000      -0.632493       -17.2110
  21   2.0000      -0.630436       -17.1550
  22   2.0000      -0.628226       -17.0949
  23   2.0000      -0.627268       -17.0688
  24   2.0000      -0.556703       -15.1486
  25   2.0000      -0.553686       -15.0666
  26   2.0000      -0.551036       -14.9945
  27   2.0000      -0.462302       -12.5799
  28   2.0000      -0.457916       -12.4605
  29   2.0000      -0.457576       -12.4513
  30   2.0000      -0.456505       -12.4221
  31   2.0000      -0.453474       -12.3397
  32   2.0000      -0.446580       -12.1521
  33   0.0000       0.097161         2.6439
  34   0.0000       0.122208         3.3254
  35   0.0000       0.145397         3.9564
  36   0.0000       0.149206         4.0601
  37   0.0000       0.157164         4.2766

MULLIKEN ATOMIC CHARGES
-----------------------
   0 C :   -0.277425
   1 H :    0.170657
   2 H :    0.173907
   3 H :    0.178513
   4 C :   -0.144743
   5 N :   -0.100893
   6 C :   -0.283308
   7 H :    0.164928
   8 H :    0.168527
   9 H :    0.182276
  10 C :   -0.155226
  11 N :   -0.077142
  12 C :   -0.285004
  13 H :    0.163205
  14 H :    0.181770
  15 H :    0.170275
  16 C :   -0.154515
  17 N :   -0.075802
Sum of atomic charges:    0.0000000

LOEWDIN ATOMIC CHARGES
----------------------
   0 C :   -0.282154
   1 H :    0.152323
   2 H :    0.153940
   3 H :    0.155022
   4 C :   -0.218366
   5 N :    0.039243
   6 C :   -0.287268
   7 H :    0.149545
   8 H :    0.150546
   9 H :    0.153806
  10 C :   -0.224117
  11 N :    0.057478
  12 C :   -0.287527
  13 H :    0.149283
  14 H :    0.152512
  15 H :    0.151361
  16 C :   -0.224252
  17 N :    0.058624

  Mayer bond orders larger than 0.100000
B(  0-C ,  1-H ) :   0.9163 B(  0-C ,  2-H ) :   0.9151 B(  0-C ,  3-H ) :   0.9143
B(  0-C ,  4-C ) :   0.9021 B(  4-C ,  5-N ) :   2.8417 B(  6-C ,  7-H ) :   0.9226
B(  6-C ,  8-H ) :   0.9194 B(  6-C ,  9-H ) :   0.9104 B(  6-C , 10-C ) :   0.8978
B( 10-C , 11-N ) :   2.8297 B( 12-C , 13-H ) :   0.9202 B( 12-C , 14-H ) :   0.9112
B( 12-C , 15-H ) :   0.9218 B( 12-C , 16-C ) :   0.8976 B( 16-C , 17-N ) :   2.8286

MP2 TOTAL ENERGY:     -397.449373914 Eh
FINAL SINGLE POINT ENERGY      -397.449373913688

DIPOLE MOMENT
-------------
                                X             Y             Z
Electronic contribution:      0.28328      -0.20217       3.27904
Nuclear contribution   :     -0.41859       0.30239      -4.62405
                        -----------------------------------------
Total Dipole Moment    :     -0.13531       0.10022      -1.34501
                        -----------------------------------------
Magnitude (a.u.)       :      1.35551
Magnitude (Debye)      :      3.44544

Rotational constants in cm-1:     0.037934     0.012898     0.011716
Rotational constants in MHz :  1137.247321   386.678529   351.236530

                             ****ORCA TERMINATED NORMALLY****
TOTAL RUN TIME: 0 days 0 hours 2 minutes 38 seconds 965 msec
