                         Program Version 4.2.0 -  RELEASE  -
|  1> # 12h2o.su.etal.mol1,3,4,7,11
|  2> ! MP2 def2-TZVP EnGrad TightSCF
|  3>
|  4> %pal
|  5>     nprocs 6
|  6> end
|  7>
|  8> %maxcore 8000
|  9>
| 10> %scf
| 11>     ConvForced true
| 12> end
| 13>
| 14> *xyz 0 1
| 15> O  -1.794470000  -0.923410000   2.768350000
| 16> H  -2.338250000  -1.359750000   3.430940000
| 17> H  -0.879480000  -1.303000000   2.865760000
| 18> O  -1.752130000  -0.741530000  -2.896280000
| 19> H  -2.036450000  -0.920500000  -1.984040000
| 20> H  -0.921210000  -1.242140000  -2.984230000
| 21> O  -0.885520000   1.737840000   0.052730000
| 22> H  -1.032320000   2.090180000  -0.841890000
| 23> H  -1.284090000   0.839590000   0.017130000
| 24> O  -1.737840000  -0.885520000  -0.052730000
| 25> H  -2.090180000  -1.032320000   0.841890000
| 26> H  -0.839590000  -1.284090000  -0.017130000
| 27> O  -0.741530000   1.752130000   2.896280000
| 28> H  -0.920500000   2.036450000   1.984040000
| 29> H  -1.242140000   0.921210000   2.984230000
| 30> *
| 31>
| 32>                          ****END OF INPUT****

CARTESIAN COORDINATES (ANGSTROEM)
---------------------------------
  O     -1.794470   -0.923410    2.768350
  H     -2.338250   -1.359750    3.430940
  H     -0.879480   -1.303000    2.865760
  O     -1.752130   -0.741530   -2.896280
  H     -2.036450   -0.920500   -1.984040
  H     -0.921210   -1.242140   -2.984230
  O     -0.885520    1.737840    0.052730
  H     -1.032320    2.090180   -0.841890
  H     -1.284090    0.839590    0.017130
  O     -1.737840   -0.885520   -0.052730
  H     -2.090180   -1.032320    0.841890
  H     -0.839590   -1.284090   -0.017130
  O     -0.741530    1.752130    2.896280
  H     -0.920500    2.036450    1.984040
  H     -1.242140    0.921210    2.984230

 Total Charge           Charge          ....    0
 Multiplicity           Mult            ....    1
 Number of Electrons    NEL             ....   50
 Basis Dimension        Dim             ....  215

ORBITAL ENERGIES
----------------

  NO   OCC          E(Eh)            E(eV)
   0   2.0000     -20.628677      -561.3349
   1   2.0000     -20.605181      -560.6955
   2   2.0000     -20.546046      -559.0863
   3   2.0000     -20.542528      -558.9906
   4   2.0000     -20.506773      -558.0177
   5   2.0000      -1.409953       -38.3668
   6   2.0000      -1.389985       -37.8234
   7   2.0000      -1.328046       -36.1380
   8   2.0000      -1.326291       -36.0902
   9   2.0000      -1.291773       -35.1509
  10   2.0000      -0.774936       -21.0871
  11   2.0000      -0.754372       -20.5275
  12   2.0000      -0.703149       -19.1337
  13   2.0000      -0.697408       -18.9774
  14   2.0000      -0.675026       -18.3684
  15   2.0000      -0.652496       -17.7553
  16   2.0000      -0.621052       -16.8997
  17   2.0000      -0.592281       -16.1168
  18   2.0000      -0.573392       -15.6028
  19   2.0000      -0.554985       -15.1019
  20   2.0000      -0.536805       -14.6072
  21   2.0000      -0.521628       -14.1942
  22   2.0000      -0.492768       -13.4089
  23   2.0000      -0.490308       -13.3420
  24   2.0000      -0.456373       -12.4185
  25   0.0000       0.077355         2.1049
  26   0.0000       0.118495         3.2244
  27   0.0000       0.153583         4.1792
  28   0.0000       0.172291         4.6883
  29   0.0000       0.187577         5.1042

MULLIKEN ATOMIC CHARGES
-----------------------
   0 O :   -0.714998
   1 H :    0.370291
   2 H :    0.369786
   3 O :   -0.691586
   4 H :    0.369173
   5 H :    0.321303
   6 O :   -0.726129
   7 H :    0.343685
   8 H :    0.354392
   9 O :   -0.716634
  10 H :    0.390129
  11 H :    0.347420
  12 O :   -0.722378
  13 H :    0.372399
  14 H :    0.333145
Sum of atomic charges:   -0.0000000

LOEWDIN ATOMIC CHARGES
----------------------
   0 O :   -0.286658
   1 H :    0.170761
   2 H :    0.191844
   3 O :   -0.337020
   4 H :    0.150035
   5 H :    0.159067
   6 O :   -0.340155
   7 H :    0.165309
   8 H :    0.141711
   9 O :   -0.281059
  10 H :    0.157200
  11 H :    0.174434
  12 O :   -0.354136
  13 H :    0.152446
  14 H :    0.136222

  Mayer bond orders larger than 0.100000
B(  0-O ,  1-H ) :   0.8286 B(  0-O ,  2-H ) :   0.8212 B(  3-O ,  4-H ) :   0.8228
B(  3-O ,  5-H ) :   0.8615 B(  6-O ,  7-H ) :   0.8452 B(  6-O ,  8-H ) :   0.7921
B(  9-O , 10-H ) :   0.7928 B(  9-O , 11-H ) :   0.8370 B( 12-O , 13-H ) :   0.8172
B( 12-O , 14-H ) :   0.8459

MP2 TOTAL ENERGY:     -381.596706281 Eh
FINAL SINGLE POINT ENERGY      -381.596706280972

DIPOLE MOMENT
-------------
                                X             Y             Z
Electronic contribution:     -0.20245       0.08659       0.08133
Nuclear contribution   :      0.19874      -2.60811       0.63259
                        -----------------------------------------
Total Dipole Moment    :     -0.00371      -2.52152       0.71393
                        -----------------------------------------
Magnitude (a.u.)       :      2.62064
Magnitude (Debye)      :      6.66114

Rotational constants in cm-1:     0.113865     0.038750     0.029247
Rotational constants in MHz :  3413.578609  1161.693362   876.815749

                             ****ORCA TERMINATED NORMALLY****
TOTAL RUN TIME: 0 days 0 hours 0 minutes 39 seconds 476 msec
