                         Program Version 4.2.0 -  RELEASE  -
|  1> # 12h2o.su.etal.mol0,1,3,6,8,10
|  2> ! MP2 def2-TZVP EnGrad TightSCF
|  3>
|  4> %pal
|  5>     nprocs 6
|  6> end
|  7>
|  8> %maxcore 8000
|  9>
| 10> %scf
| 11>     ConvForced true
| 12> end
| 13>
| 14> *xyz 0 1
| 15> O   1.794470000   0.923410000   2.768350000
| 16> H   2.338250000   1.359750000   3.430940000
| 17> H   0.879480000   1.303000000   2.865760000
| 18> O  -1.794470000  -0.923410000   2.768350000
| 19> H  -2.338250000  -1.359750000   3.430940000
| 20> H  -0.879480000  -1.303000000   2.865760000
| 21> O  -1.752130000  -0.741530000  -2.896280000
| 22> H  -2.036450000  -0.920500000  -1.984040000
| 23> H  -0.921210000  -1.242140000  -2.984230000
| 24> O   1.737840000   0.885520000  -0.052730000
| 25> H   2.090180000   1.032320000   0.841890000
| 26> H   0.839590000   1.284090000  -0.017130000
| 27> O   1.752130000   0.741530000  -2.896280000
| 28> H   2.036450000   0.920500000  -1.984040000
| 29> H   0.921210000   1.242140000  -2.984230000
| 30> O  -0.923410000   1.794470000  -2.768350000
| 31> H  -1.359750000   2.338250000  -3.430940000
| 32> H  -1.303000000   0.879480000  -2.865760000
| 33> *
| 34>
| 35>                          ****END OF INPUT****

CARTESIAN COORDINATES (ANGSTROEM)
---------------------------------
  O      1.794470    0.923410    2.768350
  H      2.338250    1.359750    3.430940
  H      0.879480    1.303000    2.865760
  O     -1.794470   -0.923410    2.768350
  H     -2.338250   -1.359750    3.430940
  H     -0.879480   -1.303000    2.865760
  O     -1.752130   -0.741530   -2.896280
  H     -2.036450   -0.920500   -1.984040
  H     -0.921210   -1.242140   -2.984230
  O      1.737840    0.885520   -0.052730
  H      2.090180    1.032320    0.841890
  H      0.839590    1.284090   -0.017130
  O      1.752130    0.741530   -2.896280
  H      2.036450    0.920500   -1.984040
  H      0.921210    1.242140   -2.984230
  O     -0.923410    1.794470   -2.768350
  H     -1.359750    2.338250   -3.430940
  H     -1.303000    0.879480   -2.865760

 Total Charge           Charge          ....    0
 Multiplicity           Mult            ....    1
 Number of Electrons    NEL             ....   60
 Basis Dimension        Dim             ....  258

ORBITAL ENERGIES
----------------

  NO   OCC          E(Eh)            E(eV)
   0   2.0000     -20.597645      -560.4904
   1   2.0000     -20.590842      -560.3053
   2   2.0000     -20.576377      -559.9117
   3   2.0000     -20.544901      -559.0552
   4   2.0000     -20.536484      -558.8261
   5   2.0000     -20.487509      -557.4935
   6   2.0000      -1.376622       -37.4598
   7   2.0000      -1.375541       -37.4304
   8   2.0000      -1.351685       -36.7812
   9   2.0000      -1.326347       -36.0917
  10   2.0000      -1.320502       -35.9327
  11   2.0000      -1.272571       -34.6284
  12   2.0000      -0.742396       -20.2016
  13   2.0000      -0.733217       -19.9518
  14   2.0000      -0.719835       -19.5877
  15   2.0000      -0.705878       -19.2079
  16   2.0000      -0.695777       -18.9330
  17   2.0000      -0.649168       -17.6648
  18   2.0000      -0.615751       -16.7554
  19   2.0000      -0.613130       -16.6841
  20   2.0000      -0.588293       -16.0083
  21   2.0000      -0.577157       -15.7052
  22   2.0000      -0.565322       -15.3832
  23   2.0000      -0.537656       -14.6304
  24   2.0000      -0.522505       -14.2181
  25   2.0000      -0.519782       -14.1440
  26   2.0000      -0.510858       -13.9012
  27   2.0000      -0.490259       -13.3406
  28   2.0000      -0.479928       -13.0595
  29   2.0000      -0.437919       -11.9164
  30   0.0000       0.090497         2.4625
  31   0.0000       0.119159         3.2425
  32   0.0000       0.128552         3.4981
  33   0.0000       0.166761         4.5378
  34   0.0000       0.173320         4.7163

MULLIKEN ATOMIC CHARGES
-----------------------
   0 O :   -0.698740
   1 H :    0.353357
   2 H :    0.357606
   3 O :   -0.693000
   4 H :    0.342849
   5 H :    0.350802
   6 O :   -0.689040
   7 H :    0.360757
   8 H :    0.372549
   9 O :   -0.710205
  10 H :    0.369595
  11 H :    0.334102
  12 O :   -0.739771
  13 H :    0.366599
  14 H :    0.344541
  15 O :   -0.736497
  16 H :    0.337083
  17 H :    0.377413
Sum of atomic charges:   -0.0000000

LOEWDIN ATOMIC CHARGES
----------------------
   0 O :   -0.311738
   1 H :    0.164167
   2 H :    0.185743
   3 O :   -0.342549
   4 H :    0.159898
   5 H :    0.182973
   6 O :   -0.271534
   7 H :    0.175791
   8 H :    0.181193
   9 O :   -0.327022
  10 H :    0.151119
  11 H :    0.168043
  12 O :   -0.362437
  13 H :    0.148866
  14 H :    0.139576
  15 O :   -0.340738
  16 H :    0.153819
  17 H :    0.144832

  Mayer bond orders larger than 0.100000
B(  0-O ,  1-H ) :   0.8409 B(  0-O ,  2-H ) :   0.8302 B(  3-O ,  4-H ) :   0.8506
B(  3-O ,  5-H ) :   0.8384 B(  6-O ,  7-H ) :   0.8357 B(  6-O ,  8-H ) :   0.8234
B(  9-O , 10-H ) :   0.8128 B(  9-O , 11-H ) :   0.8463 B( 12-O , 13-H ) :   0.8233
B( 12-O , 14-H ) :   0.8221 B( 15-O , 16-H ) :   0.8508 B( 15-O , 17-H ) :   0.7668

MP2 TOTAL ENERGY:     -457.912335627 Eh
FINAL SINGLE POINT ENERGY      -457.912335626559

DIPOLE MOMENT
-------------
                                X             Y             Z
Electronic contribution:     -0.03040      -0.30278      -0.07827
Nuclear contribution   :     -1.13354       0.14496       2.77909
                        -----------------------------------------
Total Dipole Moment    :     -1.16394      -0.15782       2.70081
                        -----------------------------------------
Magnitude (a.u.)       :      2.94518
Magnitude (Debye)      :      7.48604

Rotational constants in cm-1:     0.043365     0.022067     0.016114
Rotational constants in MHz :  1300.046527   661.559923   483.084795

                             ****ORCA TERMINATED NORMALLY****
TOTAL RUN TIME: 0 days 0 hours 0 minutes 50 seconds 0 msec
