                         Program Version 4.2.0 -  RELEASE  -
|  1> # 12h2o.su.etal.mol0,1,2,3,4,7,8,9
|  2> ! MP2 def2-TZVP EnGrad TightSCF
|  3>
|  4> %pal
|  5>     nprocs 6
|  6> end
|  7>
|  8> %maxcore 8000
|  9>
| 10> %scf
| 11>     ConvForced true
| 12> end
| 13>
| 14> *xyz 0 1
| 15> O   1.794470000   0.923410000   2.768350000
| 16> H   2.338250000   1.359750000   3.430940000
| 17> H   0.879480000   1.303000000   2.865760000
| 18> O  -1.794470000  -0.923410000   2.768350000
| 19> H  -2.338250000  -1.359750000   3.430940000
| 20> H  -0.879480000  -1.303000000   2.865760000
| 21> O   0.923410000  -1.794470000  -2.768350000
| 22> H   1.359750000  -2.338250000  -3.430940000
| 23> H   1.303000000  -0.879480000  -2.865760000
| 24> O  -1.752130000  -0.741530000  -2.896280000
| 25> H  -2.036450000  -0.920500000  -1.984040000
| 26> H  -0.921210000  -1.242140000  -2.984230000
| 27> O  -0.885520000   1.737840000   0.052730000
| 28> H  -1.032320000   2.090180000  -0.841890000
| 29> H  -1.284090000   0.839590000   0.017130000
| 30> O  -1.737840000  -0.885520000  -0.052730000
| 31> H  -2.090180000  -1.032320000   0.841890000
| 32> H  -0.839590000  -1.284090000  -0.017130000
| 33> O   1.752130000   0.741530000  -2.896280000
| 34> H   2.036450000   0.920500000  -1.984040000
| 35> H   0.921210000   1.242140000  -2.984230000
| 36> O   0.741530000  -1.752130000   2.896280000
| 37> H   0.920500000  -2.036450000   1.984040000
| 38> H   1.242140000  -0.921210000   2.984230000
| 39> *
| 40>
| 41>                          ****END OF INPUT****

CARTESIAN COORDINATES (ANGSTROEM)
---------------------------------
  O      1.794470    0.923410    2.768350
  H      2.338250    1.359750    3.430940
  H      0.879480    1.303000    2.865760
  O     -1.794470   -0.923410    2.768350
  H     -2.338250   -1.359750    3.430940
  H     -0.879480   -1.303000    2.865760
  O      0.923410   -1.794470   -2.768350
  H      1.359750   -2.338250   -3.430940
  H      1.303000   -0.879480   -2.865760
  O     -1.752130   -0.741530   -2.896280
  H     -2.036450   -0.920500   -1.984040
  H     -0.921210   -1.242140   -2.984230
  O     -0.885520    1.737840    0.052730
  H     -1.032320    2.090180   -0.841890
  H     -1.284090    0.839590    0.017130
  O     -1.737840   -0.885520   -0.052730
  H     -2.090180   -1.032320    0.841890
  H     -0.839590   -1.284090   -0.017130
  O      1.752130    0.741530   -2.896280
  H      2.036450    0.920500   -1.984040
  H      0.921210    1.242140   -2.984230
  O      0.741530   -1.752130    2.896280
  H      0.920500   -2.036450    1.984040
  H      1.242140   -0.921210    2.984230

 Total Charge           Charge          ....    0
 Multiplicity           Mult            ....    1
 Number of Electrons    NEL             ....   80
 Basis Dimension        Dim             ....  344

ORBITAL ENERGIES
----------------

  NO   OCC          E(Eh)            E(eV)
   0   2.0000     -20.597532      -560.4873
   1   2.0000     -20.596856      -560.4689
   2   2.0000     -20.587612      -560.2174
   3   2.0000     -20.574933      -559.8724
   4   2.0000     -20.554436      -559.3146
   5   2.0000     -20.547333      -559.1214
   6   2.0000     -20.529742      -558.6427
   7   2.0000     -20.504923      -557.9673
   8   2.0000      -1.383390       -37.6440
   9   2.0000      -1.381468       -37.5917
  10   2.0000      -1.370301       -37.2878
  11   2.0000      -1.362721       -37.0815
  12   2.0000      -1.335919       -36.3522
  13   2.0000      -1.331335       -36.2275
  14   2.0000      -1.310139       -35.6507
  15   2.0000      -1.289943       -35.1011
  16   2.0000      -0.746268       -20.3070
  17   2.0000      -0.739953       -20.1352
  18   2.0000      -0.732251       -19.9256
  19   2.0000      -0.725298       -19.7363
  20   2.0000      -0.719946       -19.5907
  21   2.0000      -0.716182       -19.4883
  22   2.0000      -0.685089       -18.6422
  23   2.0000      -0.667462       -18.1626
  24   2.0000      -0.632579       -17.2133
  25   2.0000      -0.624173       -16.9846
  26   2.0000      -0.611209       -16.6318
  27   2.0000      -0.600448       -16.3390
  28   2.0000      -0.579700       -15.7745
  29   2.0000      -0.576026       -15.6745
  30   2.0000      -0.561471       -15.2784
  31   2.0000      -0.538921       -14.6648
  32   2.0000      -0.535092       -14.5606
  33   2.0000      -0.525189       -14.2911
  34   2.0000      -0.523952       -14.2575
  35   2.0000      -0.509193       -13.8558
  36   2.0000      -0.503725       -13.7070
  37   2.0000      -0.492581       -13.4038
  38   2.0000      -0.477792       -13.0014
  39   2.0000      -0.455067       -12.3830
  40   0.0000       0.086664         2.3583
  41   0.0000       0.114804         3.1240
  42   0.0000       0.126601         3.4450
  43   0.0000       0.149803         4.0763
  44   0.0000       0.160672         4.3721

MULLIKEN ATOMIC CHARGES
-----------------------
   0 O :   -0.707941
   1 H :    0.354845
   2 H :    0.379399
   3 O :   -0.740980
   4 H :    0.341459
   5 H :    0.369576
   6 O :   -0.741661
   7 H :    0.340802
   8 H :    0.378488
   9 O :   -0.737367
  10 H :    0.365690
  11 H :    0.348444
  12 O :   -0.724684
  13 H :    0.324165
  14 H :    0.367659
  15 O :   -0.720711
  16 H :    0.389451
  17 H :    0.339747
  18 O :   -0.687221
  19 H :    0.363539
  20 H :    0.366237
  21 O :   -0.698266
  22 H :    0.348984
  23 H :    0.380345
Sum of atomic charges:   -0.0000000

LOEWDIN ATOMIC CHARGES
----------------------
   0 O :   -0.312041
   1 H :    0.165237
   2 H :    0.195184
   3 O :   -0.341061
   4 H :    0.156114
   5 H :    0.142577
   6 O :   -0.342625
   7 H :    0.155525
   8 H :    0.144867
   9 O :   -0.358868
  10 H :    0.146764
  11 H :    0.141177
  12 O :   -0.363776
  13 H :    0.154976
  14 H :    0.143756
  15 O :   -0.282458
  16 H :    0.156888
  17 H :    0.168924
  18 O :   -0.269835
  19 H :    0.176294
  20 H :    0.177498
  21 O :   -0.278954
  22 H :    0.167723
  23 H :    0.156113

  Mayer bond orders larger than 0.100000
B(  0-O ,  1-H ) :   0.8400 B(  0-O ,  2-H ) :   0.8150 B(  3-O ,  4-H ) :   0.8484
B(  3-O ,  5-H ) :   0.7573 B(  5-H , 21-O ) :   0.1013 B(  6-O ,  7-H ) :   0.8487
B(  6-O ,  8-H ) :   0.7641 B(  9-O , 10-H ) :   0.8264 B(  9-O , 11-H ) :   0.8182
B( 12-O , 13-H ) :   0.8587 B( 12-O , 14-H ) :   0.7892 B( 15-O , 16-H ) :   0.7824
B( 15-O , 17-H ) :   0.8374 B( 18-O , 19-H ) :   0.8324 B( 18-O , 20-H ) :   0.8269
B( 21-O , 22-H ) :   0.8428 B( 21-O , 23-H ) :   0.7884

MP2 TOTAL ENERGY:     -610.573840259 Eh
FINAL SINGLE POINT ENERGY      -610.573840258888

DIPOLE MOMENT
-------------
                                X             Y             Z
Electronic contribution:      0.31838       0.16005       0.21954
Nuclear contribution   :      1.24525      -0.14439       1.31870
                        -----------------------------------------
Total Dipole Moment    :      1.56364       0.01566       1.53824
                        -----------------------------------------
Magnitude (a.u.)       :      2.19349
Magnitude (Debye)      :      5.57541

Rotational constants in cm-1:     0.031205     0.015727     0.013919
Rotational constants in MHz :   935.494105   471.475871   417.277476

                             ****ORCA TERMINATED NORMALLY****
TOTAL RUN TIME: 0 days 0 hours 2 minutes 43 seconds 840 msec
