                         Program Version 4.2.0 -  RELEASE  -
|  1> # 12h2o.su.etal.mol2,5,7,8
|  2> ! MP2 def2-TZVP EnGrad TightSCF
|  3>
|  4> %pal
|  5>     nprocs 6
|  6> end
|  7>
|  8> %maxcore 8000
|  9>
| 10> %scf
| 11>     ConvForced true
| 12> end
| 13>
| 14> *xyz 0 1
| 15> O   0.923410000  -1.794470000  -2.768350000
| 16> H   1.359750000  -2.338250000  -3.430940000
| 17> H   1.303000000  -0.879480000  -2.865760000
| 18> O   0.885520000  -1.737840000   0.052730000
| 19> H   1.284090000  -0.839590000   0.017130000
| 20> H   1.032320000  -2.090180000  -0.841890000
| 21> O  -1.737840000  -0.885520000  -0.052730000
| 22> H  -2.090180000  -1.032320000   0.841890000
| 23> H  -0.839590000  -1.284090000  -0.017130000
| 24> O   1.752130000   0.741530000  -2.896280000
| 25> H   2.036450000   0.920500000  -1.984040000
| 26> H   0.921210000   1.242140000  -2.984230000
| 27> *
| 28>
| 29>                          ****END OF INPUT****

CARTESIAN COORDINATES (ANGSTROEM)
---------------------------------
  O      0.923410   -1.794470   -2.768350
  H      1.359750   -2.338250   -3.430940
  H      1.303000   -0.879480   -2.865760
  O      0.885520   -1.737840    0.052730
  H      1.284090   -0.839590    0.017130
  H      1.032320   -2.090180   -0.841890
  O     -1.737840   -0.885520   -0.052730
  H     -2.090180   -1.032320    0.841890
  H     -0.839590   -1.284090   -0.017130
  O      1.752130    0.741530   -2.896280
  H      2.036450    0.920500   -1.984040
  H      0.921210    1.242140   -2.984230

 Total Charge           Charge          ....    0
 Multiplicity           Mult            ....    1
 Number of Electrons    NEL             ....   40
 Basis Dimension        Dim             ....  172

ORBITAL ENERGIES
----------------

  NO   OCC          E(Eh)            E(eV)
   0   2.0000     -20.615673      -560.9810
   1   2.0000     -20.563629      -559.5648
   2   2.0000     -20.552256      -559.2553
   3   2.0000     -20.514723      -558.2340
   4   2.0000      -1.401114       -38.1262
   5   2.0000      -1.350224       -36.7415
   6   2.0000      -1.333628       -36.2899
   7   2.0000      -1.295633       -35.2560
   8   2.0000      -0.758233       -20.6326
   9   2.0000      -0.723122       -19.6772
  10   2.0000      -0.709777       -19.3140
  11   2.0000      -0.670447       -18.2438
  12   2.0000      -0.639581       -17.4039
  13   2.0000      -0.599468       -16.3124
  14   2.0000      -0.578717       -15.7477
  15   2.0000      -0.547711       -14.9040
  16   2.0000      -0.538233       -14.6461
  17   2.0000      -0.501206       -13.6385
  18   2.0000      -0.497032       -13.5249
  19   2.0000      -0.463278       -12.6064
  20   0.0000       0.083436         2.2704
  21   0.0000       0.150778         4.1029
  22   0.0000       0.154834         4.2133
  23   0.0000       0.172741         4.7005
  24   0.0000       0.217500         5.9185

MULLIKEN ATOMIC CHARGES
-----------------------
   0 O :   -0.730432
   1 H :    0.339668
   2 H :    0.367580
   3 O :   -0.689090
   4 H :    0.319407
   5 H :    0.382929
   6 O :   -0.721829
   7 H :    0.321818
   8 H :    0.360760
   9 O :   -0.675620
  10 H :    0.351586
  11 H :    0.373224
Sum of atomic charges:    0.0000000

LOEWDIN ATOMIC CHARGES
----------------------
   0 O :   -0.335880
   1 H :    0.155511
   2 H :    0.143166
   3 O :   -0.297440
   4 H :    0.161283
   5 H :    0.154490
   6 O :   -0.366693
   7 H :    0.155425
   8 H :    0.142513
   9 O :   -0.266445
  10 H :    0.170677
  11 H :    0.183393

  Mayer bond orders larger than 0.100000
B(  0-O ,  1-H ) :   0.8492 B(  0-O ,  2-H ) :   0.7718 B(  3-O ,  4-H ) :   0.8564
B(  3-O ,  5-H ) :   0.7915 B(  6-O ,  7-H ) :   0.8615 B(  6-O ,  8-H ) :   0.7939
B(  9-O , 10-H ) :   0.8405 B(  9-O , 11-H ) :   0.8273

MP2 TOTAL ENERGY:     -305.275940262 Eh
FINAL SINGLE POINT ENERGY      -305.275940262422

DIPOLE MOMENT
-------------
                                X             Y             Z
Electronic contribution:      0.13311       0.04731      -0.30867
Nuclear contribution   :      1.13252       0.87509       0.05351
                        -----------------------------------------
Total Dipole Moment    :      1.26563       0.92240      -0.25516
                        -----------------------------------------
Magnitude (a.u.)       :      1.58674
Magnitude (Debye)      :      4.03316

Rotational constants in cm-1:     0.152963     0.059966     0.054711
Rotational constants in MHz :  4585.715485  1797.736463  1640.201872

                             ****ORCA TERMINATED NORMALLY****
TOTAL RUN TIME: 0 days 0 hours 0 minutes 21 seconds 381 msec
