                         Program Version 4.2.0 -  RELEASE  -
|  1> # 12h2o.su.etal.mol3,4,5,6,8,11
|  2> ! MP2 def2-TZVP EnGrad TightSCF
|  3>
|  4> %pal
|  5>     nprocs 6
|  6> end
|  7>
|  8> %maxcore 8000
|  9>
| 10> %scf
| 11>     ConvForced true
| 12> end
| 13>
| 14> *xyz 0 1
| 15> O  -1.752130000  -0.741530000  -2.896280000
| 16> H  -2.036450000  -0.920500000  -1.984040000
| 17> H  -0.921210000  -1.242140000  -2.984230000
| 18> O  -0.885520000   1.737840000   0.052730000
| 19> H  -1.032320000   2.090180000  -0.841890000
| 20> H  -1.284090000   0.839590000   0.017130000
| 21> O   0.885520000  -1.737840000   0.052730000
| 22> H   1.284090000  -0.839590000   0.017130000
| 23> H   1.032320000  -2.090180000  -0.841890000
| 24> O   1.737840000   0.885520000  -0.052730000
| 25> H   2.090180000   1.032320000   0.841890000
| 26> H   0.839590000   1.284090000  -0.017130000
| 27> O   1.752130000   0.741530000  -2.896280000
| 28> H   2.036450000   0.920500000  -1.984040000
| 29> H   0.921210000   1.242140000  -2.984230000
| 30> O  -0.741530000   1.752130000   2.896280000
| 31> H  -0.920500000   2.036450000   1.984040000
| 32> H  -1.242140000   0.921210000   2.984230000
| 33> *
| 34>
| 35>                          ****END OF INPUT****

CARTESIAN COORDINATES (ANGSTROEM)
---------------------------------
  O     -1.752130   -0.741530   -2.896280
  H     -2.036450   -0.920500   -1.984040
  H     -0.921210   -1.242140   -2.984230
  O     -0.885520    1.737840    0.052730
  H     -1.032320    2.090180   -0.841890
  H     -1.284090    0.839590    0.017130
  O      0.885520   -1.737840    0.052730
  H      1.284090   -0.839590    0.017130
  H      1.032320   -2.090180   -0.841890
  O      1.737840    0.885520   -0.052730
  H      2.090180    1.032320    0.841890
  H      0.839590    1.284090   -0.017130
  O      1.752130    0.741530   -2.896280
  H      2.036450    0.920500   -1.984040
  H      0.921210    1.242140   -2.984230
  O     -0.741530    1.752130    2.896280
  H     -0.920500    2.036450    1.984040
  H     -1.242140    0.921210    2.984230

 Total Charge           Charge          ....    0
 Multiplicity           Mult            ....    1
 Number of Electrons    NEL             ....   60
 Basis Dimension        Dim             ....  258

ORBITAL ENERGIES
----------------

  NO   OCC          E(Eh)            E(eV)
   0   2.0000     -20.640822      -561.6653
   1   2.0000     -20.592805      -560.3587
   2   2.0000     -20.584143      -560.1230
   3   2.0000     -20.557220      -559.3904
   4   2.0000     -20.553079      -559.2777
   5   2.0000     -20.545617      -559.0747
   6   2.0000      -1.424176       -38.7538
   7   2.0000      -1.380716       -37.5712
   8   2.0000      -1.362980       -37.0886
   9   2.0000      -1.339095       -36.4386
  10   2.0000      -1.334640       -36.3174
  11   2.0000      -1.326183       -36.0873
  12   2.0000      -0.781537       -21.2667
  13   2.0000      -0.750659       -20.4265
  14   2.0000      -0.725858       -19.7516
  15   2.0000      -0.713697       -19.4207
  16   2.0000      -0.705708       -19.2033
  17   2.0000      -0.700042       -19.0491
  18   2.0000      -0.660096       -17.9621
  19   2.0000      -0.629756       -17.1365
  20   2.0000      -0.600726       -16.3466
  21   2.0000      -0.585190       -15.9238
  22   2.0000      -0.581551       -15.8248
  23   2.0000      -0.570115       -15.5136
  24   2.0000      -0.560247       -15.2451
  25   2.0000      -0.528823       -14.3900
  26   2.0000      -0.528273       -14.3750
  27   2.0000      -0.503240       -13.6939
  28   2.0000      -0.498969       -13.5776
  29   2.0000      -0.493456       -13.4276
  30   0.0000       0.062868         1.7107
  31   0.0000       0.119695         3.2571
  32   0.0000       0.126944         3.4543
  33   0.0000       0.134991         3.6733
  34   0.0000       0.165677         4.5083

MULLIKEN ATOMIC CHARGES
-----------------------
   0 O :   -0.678276
   1 H :    0.328910
   2 H :    0.350394
   3 O :   -0.710954
   4 H :    0.374505
   5 H :    0.364515
   6 O :   -0.720776
   7 H :    0.358520
   8 H :    0.328814
   9 O :   -0.734944
  10 H :    0.371065
  11 H :    0.364576
  12 O :   -0.692904
  13 H :    0.373624
  14 H :    0.317965
  15 O :   -0.690076
  16 H :    0.366066
  17 H :    0.328977
Sum of atomic charges:   -0.0000000

LOEWDIN ATOMIC CHARGES
----------------------
   0 O :   -0.328198
   1 H :    0.158945
   2 H :    0.169781
   3 O :   -0.271975
   4 H :    0.178552
   5 H :    0.180709
   6 O :   -0.361390
   7 H :    0.140208
   8 H :    0.156806
   9 O :   -0.293428
  10 H :    0.176624
  11 H :    0.144215
  12 O :   -0.335339
  13 H :    0.152113
  14 H :    0.154811
  15 O :   -0.334680
  16 H :    0.149499
  17 H :    0.162747

  Mayer bond orders larger than 0.100000
B(  0-O ,  1-H ) :   0.8555 B(  0-O ,  2-H ) :   0.8401 B(  3-O ,  4-H ) :   0.8234
B(  3-O ,  5-H ) :   0.8202 B(  6-O ,  7-H ) :   0.7952 B(  6-O ,  8-H ) :   0.8562
B(  9-O , 10-H ) :   0.8266 B(  9-O , 11-H ) :   0.7772 B( 12-O , 13-H ) :   0.8176
B( 12-O , 14-H ) :   0.8604 B( 15-O , 16-H ) :   0.8289 B( 15-O , 17-H ) :   0.8572

MP2 TOTAL ENERGY:     -457.912651719 Eh
FINAL SINGLE POINT ENERGY      -457.912651718882

DIPOLE MOMENT
-------------
                                X             Y             Z
Electronic contribution:      0.07185       0.31007       0.05373
Nuclear contribution   :     -1.02005      -0.00102      -0.08817
                        -----------------------------------------
Total Dipole Moment    :     -0.94820       0.30905      -0.03444
                        -----------------------------------------
Magnitude (a.u.)       :      0.99789
Magnitude (Debye)      :      2.53643

Rotational constants in cm-1:     0.050866     0.028029     0.025413
Rotational constants in MHz :  1524.918904   840.289702   761.856679

                             ****ORCA TERMINATED NORMALLY****
TOTAL RUN TIME: 0 days 0 hours 1 minutes 4 seconds 135 msec
