                         Program Version 3.0.3 - RELEASE   -
|  1> ! B3LYP Def2-SVP def2-SVP/J RIJCOSX TightSCF Grid4 D3BJ OPT
|  2>
|  3> %pal nprocs 12 end
|  4>
|  5> %scf
|  6>         maxiter 400
|  7> end
|  8>
|  9> * xyz  0  1
| 10> O  -0.04468784	-0.56701308	1.47508273
| 11> H  -0.02574341	-0.21196918	0.58636636
| 12> H  -0.55308813	0.06990437	1.97717550
| 13> O  0.04080847	0.40707791	-1.09273819
| 14> H  -0.34278402	-0.18280846	-1.74167788
| 15> H  0.92761331	0.57214287	-1.41299212
| 16> **                         ****END OF INPUT****
 Total Charge           Charge          ....    0
 Multiplicity           Mult            ....    1
 Number of Electrons    NEL             ....   20
Dispersion correction           -0.002256769
FINAL SINGLE POINT ENERGY      -152.656593300813
Dispersion correction            ...
Dispersion correction           -0.002191680
FINAL SINGLE POINT ENERGY      -152.657474440117
Dispersion correction            ...
Dispersion correction           -0.002190360
FINAL SINGLE POINT ENERGY      -152.657530070998
Dispersion correction            ...
FINAL SINGLE POINT ENERGY      -152.657572184463
FINAL SINGLE POINT ENERGY      -152.657601273323
FINAL SINGLE POINT ENERGY      -152.657720183772
FINAL SINGLE POINT ENERGY      -152.657788696066
FINAL SINGLE POINT ENERGY      -152.657824513990
FINAL SINGLE POINT ENERGY      -152.657834723148
FINAL SINGLE POINT ENERGY      -152.657835739439
FINAL SINGLE POINT ENERGY      -152.657824869230
FINAL SINGLE POINT ENERGY      -152.657919133656
FINAL SINGLE POINT ENERGY      -152.657971660368
FINAL SINGLE POINT ENERGY      -152.657946704773
FINAL SINGLE POINT ENERGY      -152.657924373395
FINAL SINGLE POINT ENERGY      -152.657930462087
FINAL SINGLE POINT ENERGY      -152.657956229296
Dispersion correction            ...
Dispersion correction           -0.002256126
FINAL SINGLE POINT ENERGY      -152.657946260621
Dispersion correction            ...
Dispersion correction           -0.002253382
FINAL SINGLE POINT ENERGY      -152.657932344557
Dispersion correction            ...
                    ***********************HURRAY********************

CARTESIAN COORDINATES (ANGSTROEM)
---------------------------------
  O     -0.082089   -0.598644    1.394479
  H     -0.155252   -0.092574    0.565020
  H     -0.411134    0.017300    2.061549
  O     -0.029736    0.525865   -1.254991
  H     -0.257105   -0.314349   -1.678774
  H      0.937436    0.549736   -1.296067

 Multiplicity           Mult            ....    1
 Number of Electrons    NEL             ....   20
 Basis Dimension        Dim             ....   48

ORBITAL ENERGIES
----------------

  NO   OCC          E(Eh)            E(eV)
   0   2.0000     -19.154587      -521.2228
   1   2.0000     -19.085111      -519.3323
   2   2.0000      -1.012352       -27.5475
   3   2.0000      -0.945529       -25.7292
   4   2.0000      -0.542177       -14.7534
   5   2.0000      -0.483554       -13.1582
   6   2.0000      -0.401813       -10.9339
   7   2.0000      -0.346005        -9.4153
   8   2.0000      -0.317260        -8.6331
   9   2.0000      -0.262026        -7.1301
  10   0.0000       0.027218         0.7406
  11   0.0000       0.092336         2.5126
  12   0.0000       0.108884         2.9629
  13   0.0000       0.224563         6.1107
  14   0.0000       0.530213        14.4278

MULLIKEN ATOMIC CHARGES
-----------------------
   0 O :   -0.332282
   1 H :    0.107050
   2 H :    0.142623
   3 O :   -0.257545
   4 H :    0.171745
   5 H :    0.168409
Sum of atomic charges:   -0.0000000

LOEWDIN ATOMIC CHARGES
----------------------
   0 O :   -0.179098
   1 H :    0.033536
   2 H :    0.068394
   3 O :   -0.098240
   4 H :    0.088693
   5 H :    0.086715

  Mayer bond orders larger than 0.1
B(  0-O ,  1-H ) :   0.9570 B(  0-O ,  2-H ) :   1.0084 B(  1-H ,  3-O ) :   0.1560
B(  3-O ,  4-H ) :   0.9918 B(  3-O ,  5-H ) :   0.9924

Dispersion correction           -0.002254021
FINAL SINGLE POINT ENERGY      -152.657934829038

DIPOLE MOMENT
-------------
                                X             Y             Z
Electronic contribution:     -0.03491       0.02096      -0.16002
Nuclear contribution   :      0.28100       0.25443      -0.52210
                        -----------------------------------------
Total Dipole Moment    :      0.24609       0.27539      -0.68212
                        -----------------------------------------
Magnitude (a.u.)       :      0.77569
Magnitude (Debye)      :      1.97164

                             ****ORCA TERMINATED NORMALLY****
TOTAL RUN TIME: 0 days 0 hours 18 minutes 30 seconds 733 msec
