                         Program Version 3.0.3 - RELEASE   -
|  1> ! BP86 Def2-SVP TightSCF Opt D3BJ
|  2>
|  3> %pal nprocs 12 end
|  4>
|  5> %scf
|  6>         maxiter 800
|  7> end
|  8>
|  9> * xyz  0  1
| 10> O  -0.04468784	-0.56701308	1.47508273
| 11> H  -0.02574341	-0.21196918	0.58636636
| 12> H  -0.55308813	0.06990437	1.97717550
| 13> O  0.04080847	0.40707791	-1.09273819
| 14> H  -0.34278402	-0.18280846	-1.74167788
| 15> H  0.92761331	0.57214287	-1.41299212
| 16> **                         ****END OF INPUT****
 Total Charge           Charge          ....    0
 Multiplicity           Mult            ....    1
 Number of Electrons    NEL             ....   20
Dispersion correction           -0.001926470
FINAL SINGLE POINT ENERGY      -152.733813834943
Dispersion correction            ...
Dispersion correction           -0.001881018
FINAL SINGLE POINT ENERGY      -152.735632352997
Dispersion correction            ...
Dispersion correction           -0.001882950
FINAL SINGLE POINT ENERGY      -152.735767832575
Dispersion correction            ...
FINAL SINGLE POINT ENERGY      -152.735944960198
FINAL SINGLE POINT ENERGY      -152.736011753808
FINAL SINGLE POINT ENERGY      -152.736302835798
FINAL SINGLE POINT ENERGY      -152.736379043212
FINAL SINGLE POINT ENERGY      -152.736407712317
FINAL SINGLE POINT ENERGY      -152.736426929831
FINAL SINGLE POINT ENERGY      -152.736481683721
FINAL SINGLE POINT ENERGY      -152.736533912429
FINAL SINGLE POINT ENERGY      -152.736561479776
FINAL SINGLE POINT ENERGY      -152.736565668520
Dispersion correction            ...
Dispersion correction           -0.001961915
FINAL SINGLE POINT ENERGY      -152.736567223986
Dispersion correction            ...
Dispersion correction           -0.001960553
FINAL SINGLE POINT ENERGY      -152.736567733155
Dispersion correction            ...
                    ***********************HURRAY********************

CARTESIAN COORDINATES (ANGSTROEM)
---------------------------------
  O     -0.016940   -0.571838    1.362028
  H     -0.107795   -0.037060    0.538560
  H     -0.507612   -0.038431    2.012999
  O     -0.006167    0.564585   -1.245458
  H     -0.324208   -0.289940   -1.596979
  H      0.964841    0.460017   -1.279934

 Multiplicity           Mult            ....    1
 Number of Electrons    NEL             ....   20
 Basis Dimension        Dim             ....   48

ORBITAL ENERGIES
----------------

  NO   OCC          E(Eh)            E(eV)
   0   2.0000     -18.802748      -511.6488
   1   2.0000     -18.730905      -509.6938
   2   2.0000      -0.929764       -25.3002
   3   2.0000      -0.859638       -23.3919
   4   2.0000      -0.490350       -13.3431
   5   2.0000      -0.430276       -11.7084
   6   2.0000      -0.353156        -9.6099
   7   2.0000      -0.296599        -8.0709
   8   2.0000      -0.266078        -7.2404
   9   2.0000      -0.207929        -5.6580
  10   0.0000       0.006979         0.1899
  11   0.0000       0.073652         2.0042
  12   0.0000       0.086795         2.3618
  13   0.0000       0.193481         5.2649
  14   0.0000       0.478332        13.0161

MULLIKEN ATOMIC CHARGES
-----------------------
   0 O :   -0.337627
   1 H :    0.097007
   2 H :    0.146207
   3 O :   -0.253259
   4 H :    0.173244
   5 H :    0.174428
Sum of atomic charges:   -0.0000000

LOEWDIN ATOMIC CHARGES
----------------------
   0 O :   -0.187510
   1 H :    0.029505
   2 H :    0.070862
   3 O :   -0.095803
   4 H :    0.091264
   5 H :    0.091681

  Mayer bond orders larger than 0.1
B(  0-O ,  1-H ) :   0.9443 B(  0-O ,  2-H ) :   1.0077 B(  1-H ,  3-O ) :   0.1762
B(  3-O ,  4-H ) :   0.9897 B(  3-O ,  5-H ) :   0.9907

Dispersion correction           -0.001960306
FINAL SINGLE POINT ENERGY      -152.736567821495

DIPOLE MOMENT
-------------
                                X             Y             Z
Electronic contribution:      0.01370       0.06512      -0.18548
Nuclear contribution   :      0.05946       0.09080      -0.46487
                        -----------------------------------------
Total Dipole Moment    :      0.07316       0.15592      -0.65034
                        -----------------------------------------
Magnitude (a.u.)       :      0.67276
Magnitude (Debye)      :      1.71003

                             ****ORCA TERMINATED NORMALLY****
TOTAL RUN TIME: 0 days 0 hours 12 minutes 37 seconds 500 msec
