                         Program Version 3.0.3 - RELEASE   -
|  1> ! B3LYP Def2-SVP def2-SVP/J RIJCOSX TightSCF Grid4 D3BJ COSMO OPT
|  2>
|  3> %pal nprocs 12 end
|  4>
|  5> %scf
|  6>         maxiter 800
|  7> end
|  8>
|  9> %cosmo
| 10>         SMD true
| 11>         solvent "WATER"
| 12> end
| 13>
| 14> * xyz  0  1
| 15> O  -0.04468784	-0.56701308	1.47508273
| 16> H  -0.02574341	-0.21196918	0.58636636
| 17> H  -0.55308813	0.06990437	1.97717550
| 18> O  0.04080847	0.40707791	-1.09273819
| 19> H  -0.34278402	-0.18280846	-1.74167788
| 20> H  0.92761331	0.57214287	-1.41299212
| 21> **                         ****END OF INPUT****
 Total Charge           Charge          ....    0
 Multiplicity           Mult            ....    1
 Number of Electrons    NEL             ....   20
Dispersion correction           -0.002256769
FINAL SINGLE POINT ENERGY      -152.677520272713
Dispersion correction            ...
Dispersion correction           -0.002230774
FINAL SINGLE POINT ENERGY      -152.678519266199
Dispersion correction            ...
Dispersion correction           -0.002247090
FINAL SINGLE POINT ENERGY      -152.678610020409
Dispersion correction            ...
FINAL SINGLE POINT ENERGY      -152.678657923257
FINAL SINGLE POINT ENERGY      -152.678692373798
FINAL SINGLE POINT ENERGY      -152.678730904391
FINAL SINGLE POINT ENERGY      -152.678745010515
FINAL SINGLE POINT ENERGY      -152.678789691674
FINAL SINGLE POINT ENERGY      -152.678805571411
FINAL SINGLE POINT ENERGY      -152.678819569445
FINAL SINGLE POINT ENERGY      -152.678893472738
FINAL SINGLE POINT ENERGY      -152.678908800184
FINAL SINGLE POINT ENERGY      -152.678881603267
FINAL SINGLE POINT ENERGY      -152.678855678541
FINAL SINGLE POINT ENERGY      -152.678843362368
FINAL SINGLE POINT ENERGY      -152.678862604094
FINAL SINGLE POINT ENERGY      -152.678885194333
Dispersion correction            ...
Dispersion correction           -0.002271341
FINAL SINGLE POINT ENERGY      -152.678871777376
Dispersion correction            ...
Dispersion correction           -0.002270945
FINAL SINGLE POINT ENERGY      -152.678868277100
Dispersion correction            ...
                    ***********************HURRAY********************

CARTESIAN COORDINATES (ANGSTROEM)
---------------------------------
  O     -0.107050   -0.613560    1.463137
  H     -0.081741   -0.264415    0.544615
  H     -0.421254    0.150988    1.967927
  O     -0.029172    0.453798   -1.123288
  H     -0.271721   -0.239152   -1.757289
  H      0.913058    0.599676   -1.303886

 Multiplicity           Mult            ....    1
 Number of Electrons    NEL             ....   20
 Basis Dimension        Dim             ....   48

ORBITAL ENERGIES
----------------

  NO   OCC          E(Eh)            E(eV)
   0   2.0000     -19.136290      -520.7249
   1   2.0000     -19.098690      -519.7018
   2   2.0000      -0.991721       -26.9861
   3   2.0000      -0.955171       -25.9915
   4   2.0000      -0.517076       -14.0703
   5   2.0000      -0.490567       -13.3490
   6   2.0000      -0.396598       -10.7920
   7   2.0000      -0.359182        -9.7738
   8   2.0000      -0.309540        -8.4230
   9   2.0000      -0.282303        -7.6818
  10   0.0000       0.057228         1.5573
  11   0.0000       0.105797         2.8789
  12   0.0000       0.145928         3.9709
  13   0.0000       0.239036         6.5045
  14   0.0000       0.544256        14.8100

MULLIKEN ATOMIC CHARGES
-----------------------
   0 O :   -0.422069
   1 H :    0.137125
   2 H :    0.186271
   3 O :   -0.321377
   4 H :    0.210356
   5 H :    0.209695
Sum of atomic charges:   -0.0000000

LOEWDIN ATOMIC CHARGES
----------------------
   0 O :   -0.233283
   1 H :    0.038128
   2 H :    0.090959
   3 O :   -0.118870
   4 H :    0.111740
   5 H :    0.111326

  Mayer bond orders larger than 0.1
B(  0-O ,  1-H ) :   0.9321 B(  0-O ,  2-H ) :   0.9906 B(  1-H ,  3-O ) :   0.1780
B(  3-O ,  4-H ) :   0.9736 B(  3-O ,  5-H ) :   0.9731

Dispersion correction           -0.002271131
FINAL SINGLE POINT ENERGY      -152.678868481453

DIPOLE MOMENT
-------------
                                X             Y             Z
Electronic contribution:      0.00033       0.06524      -0.23058
Nuclear contribution   :      0.34192       0.47163      -1.02242
                        -----------------------------------------
Total Dipole Moment    :      0.34225       0.53687      -1.25300
                        -----------------------------------------
Magnitude (a.u.)       :      1.40548
Magnitude (Debye)      :      3.57244

                             ****ORCA TERMINATED NORMALLY****
TOTAL RUN TIME: 0 days 0 hours 17 minutes 19 seconds 632 msec
