                         Program Version 3.0.3 - RELEASE   -
|  1> ! wB97X-D3 Def2-TZVP def2-TZVP/J RIJCOSX TightSCF Grid4 COSMO
|  2>
|  3> %pal nprocs 12 end
|  4>
|  5> %scf
|  6>         maxiter 400
|  7> end
|  8>
|  9> %cosmo
| 10>         SMD true
| 11>         solvent "WATER"
| 12> end
| 13>
| 14> * xyz  0  1
| 15> O  1.787730	1.285940	0.414557
| 16> H  1.135335	1.134551	1.199365
| 17> H  2.502962	1.850278	0.768507
| 18> O  0.007062	0.765842	2.238180
| 19> H  -0.781807	1.018988	1.671673
| 20> H  0.030584	-0.229028	2.110841
| 21> O  0.055589	-1.778603	1.365028
| 22> H  0.850898	-1.669841	0.716810
| 23> H  0.227303	-2.604383	1.858580
| 24> O  -1.880625	1.169615	0.366497
| 25> H  -1.996535	0.192260	0.063292
| 26> H  -2.785395	1.513130	0.503223
| 27> O  1.944987	-1.288645	-0.352107
| 28> H  1.338508	-1.169068	-1.142467
| 29> H  2.085140	-0.336874	-0.066818
| 30> O  -0.041160	1.845731	-1.481341
| 31> H  0.729812	1.801682	-0.841318
| 32> H  -0.821755	1.760726	-0.858013
| 33> O  0.036268	-0.673618	-2.144472
| 34> H  0.007175	0.343516	-1.980105
| 35> H  0.063609	-0.786029	-3.115192
| 36> O  -1.916564	-1.318782	-0.409593
| 37> H  -1.294855	-1.188480	-1.185539
| 38> H  -1.284267	-1.638905	0.300412
| 39> **                         ****END OF INPUT****

CARTESIAN COORDINATES (ANGSTROEM)
---------------------------------
  O      1.787730    1.285940    0.414557
  H      1.135335    1.134551    1.199365
  H      2.502962    1.850278    0.768507
  O      0.007062    0.765842    2.238180
  H     -0.781807    1.018988    1.671673
  H      0.030584   -0.229028    2.110841
  O      0.055589   -1.778603    1.365028
  H      0.850898   -1.669841    0.716810
  H      0.227303   -2.604383    1.858580
  O     -1.880625    1.169615    0.366497
  H     -1.996535    0.192260    0.063292
  H     -2.785395    1.513130    0.503223
  O      1.944987   -1.288645   -0.352107
  H      1.338508   -1.169068   -1.142467
  H      2.085140   -0.336874   -0.066818
  O     -0.041160    1.845731   -1.481341
  H      0.729812    1.801682   -0.841318
  H     -0.821755    1.760726   -0.858013
  O      0.036268   -0.673618   -2.144472
  H      0.007175    0.343516   -1.980105
  H      0.063609   -0.786029   -3.115192
  O     -1.916564   -1.318782   -0.409593
  H     -1.294855   -1.188480   -1.185539
  H     -1.284267   -1.638905    0.300412

 Total Charge           Charge          ....    0
 Multiplicity           Mult            ....    1
 Number of Electrons    NEL             ....   80
 Basis Dimension        Dim             ....  344

ORBITAL ENERGIES
----------------

  NO   OCC          E(Eh)            E(eV)
   0   2.0000     -19.237851      -523.4885
   1   2.0000     -19.237695      -523.4843
   2   2.0000     -19.237243      -523.4720
   3   2.0000     -19.237053      -523.4668
   4   2.0000     -19.227220      -523.1993
   5   2.0000     -19.226737      -523.1861
   6   2.0000     -19.226630      -523.1832
   7   2.0000     -19.226499      -523.1796
   8   2.0000      -1.145852       -31.1802
   9   2.0000      -1.128723       -30.7141
  10   2.0000      -1.126407       -30.6511
  11   2.0000      -1.125925       -30.6380
  12   2.0000      -1.107017       -30.1235
  13   2.0000      -1.106782       -30.1171
  14   2.0000      -1.104366       -30.0513
  15   2.0000      -1.088103       -29.6088
  16   2.0000      -0.638174       -17.3656
  17   2.0000      -0.636917       -17.3314
  18   2.0000      -0.634019       -17.2525
  19   2.0000      -0.633252       -17.2317
  20   2.0000      -0.621930       -16.9236
  21   2.0000      -0.621091       -16.9007
  22   2.0000      -0.614380       -16.7181
  23   2.0000      -0.614067       -16.7096
  24   2.0000      -0.566701       -15.4207
  25   2.0000      -0.527106       -14.3433
  26   2.0000      -0.526684       -14.3318
  27   2.0000      -0.523879       -14.2555
  28   2.0000      -0.493414       -13.4265
  29   2.0000      -0.489936       -13.3318
  30   2.0000      -0.489630       -13.3235
  31   2.0000      -0.455229       -12.3874
  32   2.0000      -0.422068       -11.4850
  33   2.0000      -0.421730       -11.4759
  34   2.0000      -0.420922       -11.4539
  35   2.0000      -0.420311       -11.4373
  36   2.0000      -0.414262       -11.2726
  37   2.0000      -0.414023       -11.2661
  38   2.0000      -0.411903       -11.2084
  39   2.0000      -0.409737       -11.1495
  40   0.0000       0.100968         2.7475
  41   0.0000       0.148802         4.0491
  42   0.0000       0.149042         4.0556
  43   0.0000       0.149263         4.0617
  44   0.0000       0.217772         5.9259

MULLIKEN ATOMIC CHARGES
-----------------------
   0 O :   -0.787989
   1 H :    0.376206
   2 H :    0.407115
   3 O :   -0.760858
   4 H :    0.383604
   5 H :    0.381463
   6 O :   -0.787939
   7 H :    0.377046
   8 H :    0.406975
   9 O :   -0.786625
  10 H :    0.376472
  11 H :    0.407467
  12 O :   -0.760645
  13 H :    0.384339
  14 H :    0.379805
  15 O :   -0.761074
  16 H :    0.384479
  17 H :    0.381712
  18 O :   -0.786976
  19 H :    0.375739
  20 H :    0.407713
  21 O :   -0.762137
  22 H :    0.381294
  23 H :    0.382814
Sum of atomic charges:   -0.0000000

LOEWDIN ATOMIC CHARGES
----------------------
   0 O :   -0.302739
   1 H :    0.148690
   2 H :    0.188912
   3 O :   -0.331339
   4 H :    0.147339
   5 H :    0.147780
   6 O :   -0.302376
   7 H :    0.148618
   8 H :    0.188857
   9 O :   -0.300503
  10 H :    0.149120
  11 H :    0.189456
  12 O :   -0.331071
  13 H :    0.147886
  14 H :    0.147419
  15 O :   -0.331171
  16 H :    0.148293
  17 H :    0.147928
  18 O :   -0.301264
  19 H :    0.149058
  20 H :    0.189400
  21 O :   -0.332764
  22 H :    0.147324
  23 H :    0.147148

  Mayer bond orders larger than 0.1
B(  0-O ,  1-H ) :   0.7250 B(  0-O ,  2-H ) :   0.8376 B(  0-O , 14-H ) :   0.1122
B(  0-O , 16-H ) :   0.1087 B(  1-H ,  3-O ) :   0.1828 B(  3-O ,  4-H ) :   0.7911
B(  3-O ,  5-H ) :   0.7922 B(  4-H ,  9-O ) :   0.1110 B(  5-H ,  6-O ) :   0.1105
B(  6-O ,  7-H ) :   0.7251 B(  6-O ,  8-H ) :   0.8377 B(  6-O , 23-H ) :   0.1110
B(  7-H , 12-O ) :   0.1816 B(  9-O , 10-H ) :   0.7277 B(  9-O , 11-H ) :   0.8373
B(  9-O , 17-H ) :   0.1092 B( 10-H , 21-O ) :   0.1793 B( 12-O , 13-H ) :   0.7914
B( 12-O , 14-H ) :   0.7923 B( 13-H , 18-O ) :   0.1097 B( 15-O , 16-H ) :   0.7920
B( 15-O , 17-H ) :   0.7930 B( 15-O , 19-H ) :   0.1802 B( 18-O , 19-H ) :   0.7275
B( 18-O , 20-H ) :   0.8371 B( 18-O , 22-H ) :   0.1106 B( 21-O , 22-H ) :   0.7923
B( 21-O , 23-H ) :   0.7919

Dispersion correction           -0.012609489
FINAL SINGLE POINT ENERGY      -611.666585769298

DIPOLE MOMENT
-------------
                                X             Y             Z
Electronic contribution:     -0.00338       0.00525      -0.00460
Nuclear contribution   :      0.01676      -0.01868       0.00812
                        -----------------------------------------
Total Dipole Moment    :      0.01338      -0.01342       0.00352
                        -----------------------------------------
Magnitude (a.u.)       :      0.01928
Magnitude (Debye)      :      0.04899

                             ****ORCA TERMINATED NORMALLY****
TOTAL RUN TIME: 0 days 0 hours 1 minutes 10 seconds 412 msec
