                         Program Version 3.0.3 - RELEASE   -
|  1> ! B3LYP Def2-TZVP def2-TZVP/J RIJCOSX TightSCF Grid4 D3BJ COSMO
|  2>
|  3> %pal nprocs 12 end
|  4>
|  5> %scf
|  6>         maxiter 400
|  7> end
|  8>
|  9> %cosmo
| 10>         SMD true
| 11>         solvent "WATER"
| 12> end
| 13>
| 14> * xyz  0  1
| 15> O  1.787730	1.285940	0.414557
| 16> H  1.135335	1.134551	1.199365
| 17> H  2.502962	1.850278	0.768507
| 18> O  0.007062	0.765842	2.238180
| 19> H  -0.781807	1.018988	1.671673
| 20> H  0.030584	-0.229028	2.110841
| 21> O  0.055589	-1.778603	1.365028
| 22> H  0.850898	-1.669841	0.716810
| 23> H  0.227303	-2.604383	1.858580
| 24> O  -1.880625	1.169615	0.366497
| 25> H  -1.996535	0.192260	0.063292
| 26> H  -2.785395	1.513130	0.503223
| 27> O  1.944987	-1.288645	-0.352107
| 28> H  1.338508	-1.169068	-1.142467
| 29> H  2.085140	-0.336874	-0.066818
| 30> O  -0.041160	1.845731	-1.481341
| 31> H  0.729812	1.801682	-0.841318
| 32> H  -0.821755	1.760726	-0.858013
| 33> O  0.036268	-0.673618	-2.144472
| 34> H  0.007175	0.343516	-1.980105
| 35> H  0.063609	-0.786029	-3.115192
| 36> O  -1.916564	-1.318782	-0.409593
| 37> H  -1.294855	-1.188480	-1.185539
| 38> H  -1.284267	-1.638905	0.300412
| 39> **                         ****END OF INPUT****

CARTESIAN COORDINATES (ANGSTROEM)
---------------------------------
  O      1.787730    1.285940    0.414557
  H      1.135335    1.134551    1.199365
  H      2.502962    1.850278    0.768507
  O      0.007062    0.765842    2.238180
  H     -0.781807    1.018988    1.671673
  H      0.030584   -0.229028    2.110841
  O      0.055589   -1.778603    1.365028
  H      0.850898   -1.669841    0.716810
  H      0.227303   -2.604383    1.858580
  O     -1.880625    1.169615    0.366497
  H     -1.996535    0.192260    0.063292
  H     -2.785395    1.513130    0.503223
  O      1.944987   -1.288645   -0.352107
  H      1.338508   -1.169068   -1.142467
  H      2.085140   -0.336874   -0.066818
  O     -0.041160    1.845731   -1.481341
  H      0.729812    1.801682   -0.841318
  H     -0.821755    1.760726   -0.858013
  O      0.036268   -0.673618   -2.144472
  H      0.007175    0.343516   -1.980105
  H      0.063609   -0.786029   -3.115192
  O     -1.916564   -1.318782   -0.409593
  H     -1.294855   -1.188480   -1.185539
  H     -1.284267   -1.638905    0.300412

 Total Charge           Charge          ....    0
 Multiplicity           Mult            ....    1
 Number of Electrons    NEL             ....   80
 Basis Dimension        Dim             ....  344

ORBITAL ENERGIES
----------------

  NO   OCC          E(Eh)            E(eV)
   0   2.0000     -19.129549      -520.5415
   1   2.0000     -19.129413      -520.5378
   2   2.0000     -19.128959      -520.5254
   3   2.0000     -19.128784      -520.5207
   4   2.0000     -19.118232      -520.2335
   5   2.0000     -19.117731      -520.2199
   6   2.0000     -19.117657      -520.2179
   7   2.0000     -19.117489      -520.2133
   8   2.0000      -1.028419       -27.9847
   9   2.0000      -1.011972       -27.5372
  10   2.0000      -1.009713       -27.4757
  11   2.0000      -1.009227       -27.4625
  12   2.0000      -0.990618       -26.9561
  13   2.0000      -0.990394       -26.9500
  14   2.0000      -0.988021       -26.8854
  15   2.0000      -0.972211       -26.4552
  16   2.0000      -0.533764       -14.5245
  17   2.0000      -0.531963       -14.4754
  18   2.0000      -0.529961       -14.4210
  19   2.0000      -0.529225       -14.4010
  20   2.0000      -0.516540       -14.0558
  21   2.0000      -0.515582       -14.0297
  22   2.0000      -0.509878       -13.8745
  23   2.0000      -0.509635       -13.8679
  24   2.0000      -0.460225       -12.5233
  25   2.0000      -0.422833       -11.5059
  26   2.0000      -0.422390       -11.4938
  27   2.0000      -0.420346       -11.4382
  28   2.0000      -0.391707       -10.6589
  29   2.0000      -0.389011       -10.5855
  30   2.0000      -0.388706       -10.5772
  31   2.0000      -0.355514        -9.6740
  32   2.0000      -0.322867        -8.7857
  33   2.0000      -0.322555        -8.7772
  34   2.0000      -0.321660        -8.7528
  35   2.0000      -0.321112        -8.7379
  36   2.0000      -0.315140        -8.5754
  37   2.0000      -0.314933        -8.5698
  38   2.0000      -0.313119        -8.5204
  39   2.0000      -0.311126        -8.4662
  40   0.0000       0.018822         0.5122
  41   0.0000       0.060599         1.6490
  42   0.0000       0.060950         1.6585
  43   0.0000       0.061175         1.6647
  44   0.0000       0.130514         3.5515

MULLIKEN ATOMIC CHARGES
-----------------------
   0 O :   -0.757119
   1 H :    0.371786
   2 H :    0.385384
   3 O :   -0.749427
   4 H :    0.375716
   5 H :    0.373166
   6 O :   -0.756995
   7 H :    0.372452
   8 H :    0.385249
   9 O :   -0.755710
  10 H :    0.372170
  11 H :    0.385748
  12 O :   -0.749190
  13 H :    0.376165
  14 H :    0.371793
  15 O :   -0.749821
  16 H :    0.376425
  17 H :    0.373519
  18 O :   -0.756068
  19 H :    0.371637
  20 H :    0.385994
  21 O :   -0.750931
  22 H :    0.373008
  23 H :    0.375049
Sum of atomic charges:    0.0000000

LOEWDIN ATOMIC CHARGES
----------------------
   0 O :   -0.297194
   1 H :    0.147524
   2 H :    0.185490
   3 O :   -0.329472
   4 H :    0.145957
   5 H :    0.146338
   6 O :   -0.296833
   7 H :    0.147445
   8 H :    0.185438
   9 O :   -0.294948
  10 H :    0.147975
  11 H :    0.186029
  12 O :   -0.329216
  13 H :    0.146458
  14 H :    0.145977
  15 O :   -0.329312
  16 H :    0.146911
  17 H :    0.146494
  18 O :   -0.295720
  19 H :    0.147938
  20 H :    0.185980
  21 O :   -0.330927
  22 H :    0.145885
  23 H :    0.145782

  Mayer bond orders larger than 0.1
B(  0-O ,  1-H ) :   0.7200 B(  0-O ,  2-H ) :   0.8504 B(  0-O , 14-H ) :   0.1218
B(  0-O , 16-H ) :   0.1179 B(  1-H ,  3-O ) :   0.1910 B(  3-O ,  4-H ) :   0.7911
B(  3-O ,  5-H ) :   0.7924 B(  4-H ,  9-O ) :   0.1206 B(  5-H ,  6-O ) :   0.1199
B(  6-O ,  7-H ) :   0.7202 B(  6-O ,  8-H ) :   0.8505 B(  6-O , 23-H ) :   0.1204
B(  7-H , 12-O ) :   0.1899 B(  9-O , 10-H ) :   0.7228 B(  9-O , 11-H ) :   0.8502
B(  9-O , 17-H ) :   0.1185 B( 10-H , 21-O ) :   0.1875 B( 12-O , 13-H ) :   0.7916
B( 12-O , 14-H ) :   0.7922 B( 13-H , 18-O ) :   0.1192 B( 15-O , 16-H ) :   0.7923
B( 15-O , 17-H ) :   0.7931 B( 15-O , 19-H ) :   0.1881 B( 18-O , 19-H ) :   0.7225
B( 18-O , 20-H ) :   0.8499 B( 18-O , 22-H ) :   0.1200 B( 21-O , 22-H ) :   0.7925
B( 21-O , 23-H ) :   0.7918

Dispersion correction           -0.026062242
FINAL SINGLE POINT ENERGY      -611.575919851351

DIPOLE MOMENT
-------------
                                X             Y             Z
Electronic contribution:     -0.00401       0.00583      -0.00485
Nuclear contribution   :      0.01676      -0.01868       0.00812
                        -----------------------------------------
Total Dipole Moment    :      0.01275      -0.01284       0.00327
                        -----------------------------------------
Magnitude (a.u.)       :      0.01839
Magnitude (Debye)      :      0.04675

                             ****ORCA TERMINATED NORMALLY****
TOTAL RUN TIME: 0 days 0 hours 1 minutes 5 seconds 883 msec
