                         Program Version 4.2.0 -  RELEASE  -
|  1> # 12meoh.boyd.etal.mol0,11
|  2> ! MP2 def2-TZVP EnGrad TightSCF
|  3>
|  4> %pal
|  5>     nprocs 6
|  6> end
|  7>
|  8> %maxcore 8000
|  9>
| 10> %scf
| 11>     ConvForced true
| 12> end
| 13>
| 14> *xyz 0 1
| 15> O  -1.776108874  -2.741384797  -1.019308298
| 16> H  -2.520094035  -2.452295987  -0.420778302
| 17> C  -2.174025166  -3.952700964  -1.647004581
| 18> H  -1.359803895  -4.272673416  -2.304149236
| 19> H  -3.075973971  -3.808692420  -2.256751112
| 20> H  -2.370225393  -4.752784761  -0.918966137
| 21> O   3.252955559   0.588596242   1.858934315
| 22> H   3.621209177  -0.251605199   1.476063364
| 23> C   4.040824528   0.944288422   2.989639460
| 24> H   3.670521436   1.902573549   3.363847391
| 25> H   5.103749934   1.055868619   2.734277559
| 26> H   3.948540682   0.200279590   3.792908518
| 27> *
| 28>
| 29>                          ****END OF INPUT****

CARTESIAN COORDINATES (ANGSTROEM)
---------------------------------
  O     -1.776109   -2.741385   -1.019308
  H     -2.520094   -2.452296   -0.420778
  C     -2.174025   -3.952701   -1.647005
  H     -1.359804   -4.272673   -2.304149
  H     -3.075974   -3.808692   -2.256751
  H     -2.370225   -4.752785   -0.918966
  O      3.252956    0.588596    1.858934
  H      3.621209   -0.251605    1.476063
  C      4.040825    0.944288    2.989639
  H      3.670521    1.902574    3.363847
  H      5.103750    1.055869    2.734278
  H      3.948541    0.200280    3.792909

 Total Charge           Charge          ....    0
 Multiplicity           Mult            ....    1
 Number of Electrons    NEL             ....   36
 Basis Dimension        Dim             ....  172

ORBITAL ENERGIES
----------------

  NO   OCC          E(Eh)            E(eV)
   0   2.0000     -20.556271      -559.3646
   1   2.0000     -20.553854      -559.2988
   2   2.0000     -11.270279      -306.6799
   3   2.0000     -11.268941      -306.6435
   4   2.0000      -1.345412       -36.6105
   5   2.0000      -1.343192       -36.5501
   6   2.0000      -0.917757       -24.9734
   7   2.0000      -0.916866       -24.9492
   8   2.0000      -0.679998       -18.5037
   9   2.0000      -0.678395       -18.4601
  10   2.0000      -0.615889       -16.7592
  11   2.0000      -0.614067       -16.7096
  12   2.0000      -0.589666       -16.0456
  13   2.0000      -0.587762       -15.9938
  14   2.0000      -0.498767       -13.5721
  15   2.0000      -0.497026       -13.5248
  16   2.0000      -0.447368       -12.1735
  17   2.0000      -0.445942       -12.1347
  18   0.0000       0.136288         3.7086
  19   0.0000       0.138576         3.7708
  20   0.0000       0.177051         4.8178
  21   0.0000       0.178600         4.8600
  22   0.0000       0.230369         6.2687

MULLIKEN ATOMIC CHARGES
-----------------------
   0 O :   -0.494170
   1 H :    0.321989
   2 C :   -0.173515
   3 H :    0.128495
   4 H :    0.108942
   5 H :    0.108258
   6 O :   -0.495420
   7 H :    0.322336
   8 C :   -0.172713
   9 H :    0.128654
  10 H :    0.108711
  11 H :    0.108432
Sum of atomic charges:   -0.0000000

LOEWDIN ATOMIC CHARGES
----------------------
   0 O :   -0.108107
   1 H :    0.192794
   2 C :   -0.384767
   3 H :    0.110162
   4 H :    0.095038
   5 H :    0.094881
   6 O :   -0.108242
   7 H :    0.190519
   8 C :   -0.382381
   9 H :    0.110040
  10 H :    0.095087
  11 H :    0.094977

  Mayer bond orders larger than 0.100000
B(  0-O ,  1-H ) :   0.8415 B(  0-O ,  2-C ) :   0.9284 B(  2-C ,  3-H ) :   0.9376
B(  2-C ,  4-H ) :   0.9397 B(  2-C ,  5-H ) :   0.9380 B(  6-O ,  7-H ) :   0.8418
B(  6-O ,  8-C ) :   0.9285 B(  8-C ,  9-H ) :   0.9378 B(  8-C , 10-H ) :   0.9388
B(  8-C , 11-H ) :   0.9387

MP2 TOTAL ENERGY:     -231.013018897 Eh
FINAL SINGLE POINT ENERGY      -231.013018897333

DIPOLE MOMENT
-------------
                                X             Y             Z
Electronic contribution:     -0.43203       1.20022      -0.68750
Nuclear contribution   :      0.35955      -1.88025       1.01742
                        -----------------------------------------
Total Dipole Moment    :     -0.07249      -0.68003       0.32992
                        -----------------------------------------
Magnitude (a.u.)       :      0.75930
Magnitude (Debye)      :      1.92999

Rotational constants in cm-1:     1.020892     0.016302     0.016254
Rotational constants in MHz : 30605.580540   488.709637   487.267995

                             ****ORCA TERMINATED NORMALLY****
TOTAL RUN TIME: 0 days 0 hours 0 minutes 15 seconds 439 msec
