                         Program Version 4.2.0 -  RELEASE  -
|  1> # 12h2o.su.etal.mol2,3,5,8,10
|  2> ! MP2 def2-TZVP EnGrad TightSCF
|  3>
|  4> %pal
|  5>     nprocs 6
|  6> end
|  7>
|  8> %maxcore 8000
|  9>
| 10> %scf
| 11>     ConvForced true
| 12> end
| 13>
| 14> *xyz 0 1
| 15> O   0.923410000  -1.794470000  -2.768350000
| 16> H   1.359750000  -2.338250000  -3.430940000
| 17> H   1.303000000  -0.879480000  -2.865760000
| 18> O  -1.752130000  -0.741530000  -2.896280000
| 19> H  -2.036450000  -0.920500000  -1.984040000
| 20> H  -0.921210000  -1.242140000  -2.984230000
| 21> O   0.885520000  -1.737840000   0.052730000
| 22> H   1.284090000  -0.839590000   0.017130000
| 23> H   1.032320000  -2.090180000  -0.841890000
| 24> O   1.752130000   0.741530000  -2.896280000
| 25> H   2.036450000   0.920500000  -1.984040000
| 26> H   0.921210000   1.242140000  -2.984230000
| 27> O  -0.923410000   1.794470000  -2.768350000
| 28> H  -1.359750000   2.338250000  -3.430940000
| 29> H  -1.303000000   0.879480000  -2.865760000
| 30> *
| 31>
| 32>                          ****END OF INPUT****

CARTESIAN COORDINATES (ANGSTROEM)
---------------------------------
  O      0.923410   -1.794470   -2.768350
  H      1.359750   -2.338250   -3.430940
  H      1.303000   -0.879480   -2.865760
  O     -1.752130   -0.741530   -2.896280
  H     -2.036450   -0.920500   -1.984040
  H     -0.921210   -1.242140   -2.984230
  O      0.885520   -1.737840    0.052730
  H      1.284090   -0.839590    0.017130
  H      1.032320   -2.090180   -0.841890
  O      1.752130    0.741530   -2.896280
  H      2.036450    0.920500   -1.984040
  H      0.921210    1.242140   -2.984230
  O     -0.923410    1.794470   -2.768350
  H     -1.359750    2.338250   -3.430940
  H     -1.303000    0.879480   -2.865760

 Total Charge           Charge          ....    0
 Multiplicity           Mult            ....    1
 Number of Electrons    NEL             ....   50
 Basis Dimension        Dim             ....  215

ORBITAL ENERGIES
----------------

  NO   OCC          E(Eh)            E(eV)
   0   2.0000     -20.584867      -560.1427
   1   2.0000     -20.575125      -559.8776
   2   2.0000     -20.573973      -559.8463
   3   2.0000     -20.553442      -559.2876
   4   2.0000     -20.541681      -558.9676
   5   2.0000      -1.380237       -37.5581
   6   2.0000      -1.365152       -37.1477
   7   2.0000      -1.356410       -36.9098
   8   2.0000      -1.333679       -36.2912
   9   2.0000      -1.320286       -35.9268
  10   2.0000      -0.742222       -20.1969
  11   2.0000      -0.736609       -20.0441
  12   2.0000      -0.723113       -19.6769
  13   2.0000      -0.716342       -19.4927
  14   2.0000      -0.690150       -18.7799
  15   2.0000      -0.636553       -17.3215
  16   2.0000      -0.606037       -16.4911
  17   2.0000      -0.599624       -16.3166
  18   2.0000      -0.573062       -15.5938
  19   2.0000      -0.560223       -15.2444
  20   2.0000      -0.527058       -14.3420
  21   2.0000      -0.519417       -14.1341
  22   2.0000      -0.514196       -13.9920
  23   2.0000      -0.504009       -13.7148
  24   2.0000      -0.487068       -13.2538
  25   0.0000       0.098411         2.6779
  26   0.0000       0.142214         3.8698
  27   0.0000       0.147526         4.0144
  28   0.0000       0.167276         4.5518
  29   0.0000       0.211489         5.7549

MULLIKEN ATOMIC CHARGES
-----------------------
   0 O :   -0.755968
   1 H :    0.353029
   2 H :    0.379690
   3 O :   -0.709621
   4 H :    0.360749
   5 H :    0.378458
   6 O :   -0.689630
   7 H :    0.311284
   8 H :    0.366397
   9 O :   -0.703937
  10 H :    0.347373
  11 H :    0.383375
  12 O :   -0.744384
  13 H :    0.343348
  14 H :    0.379836
Sum of atomic charges:   -0.0000000

LOEWDIN ATOMIC CHARGES
----------------------
   0 O :   -0.314910
   1 H :    0.160207
   2 H :    0.145144
   3 O :   -0.282702
   4 H :    0.174134
   5 H :    0.153693
   6 O :   -0.345163
   7 H :    0.158110
   8 H :    0.147533
   9 O :   -0.279958
  10 H :    0.167061
  11 H :    0.156446
  12 O :   -0.341398
  13 H :    0.156715
  14 H :    0.145088

  Mayer bond orders larger than 0.100000
B(  0-O ,  1-H ) :   0.8390 B(  0-O ,  2-H ) :   0.7352 B(  2-H ,  9-O ) :   0.1121
B(  3-O ,  4-H ) :   0.8346 B(  3-O ,  5-H ) :   0.7908 B(  3-O , 14-H ) :   0.1091
B(  6-O ,  7-H ) :   0.8646 B(  6-O ,  8-H ) :   0.8163 B(  9-O , 10-H ) :   0.8430
B(  9-O , 11-H ) :   0.7749 B( 12-O , 13-H ) :   0.8471 B( 12-O , 14-H ) :   0.7486

MP2 TOTAL ENERGY:     -381.617422046 Eh
FINAL SINGLE POINT ENERGY      -381.617422046079

DIPOLE MOMENT
-------------
                                X             Y             Z
Electronic contribution:     -0.13333      -0.08999      -0.08905
Nuclear contribution   :      0.45394       0.45439      -0.66725
                        -----------------------------------------
Total Dipole Moment    :      0.32061       0.36440      -0.75630
                        -----------------------------------------
Magnitude (a.u.)       :      0.89865
Magnitude (Debye)      :      2.28419

Rotational constants in cm-1:     0.083355     0.051975     0.044030
Rotational constants in MHz :  2498.914660  1558.156512  1319.993478

                             ****ORCA TERMINATED NORMALLY****
TOTAL RUN TIME: 0 days 0 hours 0 minutes 38 seconds 210 msec
