                         Program Version 4.2.0 -  RELEASE  -
|  1> # 12h2o.su.etal.mol0,2,4,5,6,8,9,10,11
|  2> ! MP2 def2-TZVP EnGrad TightSCF
|  3>
|  4> %pal
|  5>     nprocs 6
|  6> end
|  7>
|  8> %maxcore 8000
|  9>
| 10> %scf
| 11>     ConvForced true
| 12> end
| 13>
| 14> *xyz 0 1
| 15> O   1.794470000   0.923410000   2.768350000
| 16> H   2.338250000   1.359750000   3.430940000
| 17> H   0.879480000   1.303000000   2.865760000
| 18> O   0.923410000  -1.794470000  -2.768350000
| 19> H   1.359750000  -2.338250000  -3.430940000
| 20> H   1.303000000  -0.879480000  -2.865760000
| 21> O  -0.885520000   1.737840000   0.052730000
| 22> H  -1.032320000   2.090180000  -0.841890000
| 23> H  -1.284090000   0.839590000   0.017130000
| 24> O   0.885520000  -1.737840000   0.052730000
| 25> H   1.284090000  -0.839590000   0.017130000
| 26> H   1.032320000  -2.090180000  -0.841890000
| 27> O   1.737840000   0.885520000  -0.052730000
| 28> H   2.090180000   1.032320000   0.841890000
| 29> H   0.839590000   1.284090000  -0.017130000
| 30> O   1.752130000   0.741530000  -2.896280000
| 31> H   2.036450000   0.920500000  -1.984040000
| 32> H   0.921210000   1.242140000  -2.984230000
| 33> O   0.741530000  -1.752130000   2.896280000
| 34> H   0.920500000  -2.036450000   1.984040000
| 35> H   1.242140000  -0.921210000   2.984230000
| 36> O  -0.923410000   1.794470000  -2.768350000
| 37> H  -1.359750000   2.338250000  -3.430940000
| 38> H  -1.303000000   0.879480000  -2.865760000
| 39> O  -0.741530000   1.752130000   2.896280000
| 40> H  -0.920500000   2.036450000   1.984040000
| 41> H  -1.242140000   0.921210000   2.984230000
| 42> *
| 43>
| 44>                          ****END OF INPUT****

CARTESIAN COORDINATES (ANGSTROEM)
---------------------------------
  O      1.794470    0.923410    2.768350
  H      2.338250    1.359750    3.430940
  H      0.879480    1.303000    2.865760
  O      0.923410   -1.794470   -2.768350
  H      1.359750   -2.338250   -3.430940
  H      1.303000   -0.879480   -2.865760
  O     -0.885520    1.737840    0.052730
  H     -1.032320    2.090180   -0.841890
  H     -1.284090    0.839590    0.017130
  O      0.885520   -1.737840    0.052730
  H      1.284090   -0.839590    0.017130
  H      1.032320   -2.090180   -0.841890
  O      1.737840    0.885520   -0.052730
  H      2.090180    1.032320    0.841890
  H      0.839590    1.284090   -0.017130
  O      1.752130    0.741530   -2.896280
  H      2.036450    0.920500   -1.984040
  H      0.921210    1.242140   -2.984230
  O      0.741530   -1.752130    2.896280
  H      0.920500   -2.036450    1.984040
  H      1.242140   -0.921210    2.984230
  O     -0.923410    1.794470   -2.768350
  H     -1.359750    2.338250   -3.430940
  H     -1.303000    0.879480   -2.865760
  O     -0.741530    1.752130    2.896280
  H     -0.920500    2.036450    1.984040
  H     -1.242140    0.921210    2.984230

 Total Charge           Charge          ....    0
 Multiplicity           Mult            ....    1
 Number of Electrons    NEL             ....   90
 Basis Dimension        Dim             ....  387

ORBITAL ENERGIES
----------------

  NO   OCC          E(Eh)            E(eV)
   0   2.0000     -20.639918      -561.6407
   1   2.0000     -20.613750      -560.9286
   2   2.0000     -20.583047      -560.0932
   3   2.0000     -20.559668      -559.4570
   4   2.0000     -20.559099      -559.4415
   5   2.0000     -20.556710      -559.3765
   6   2.0000     -20.537359      -558.8499
   7   2.0000     -20.506346      -558.0061
   8   2.0000     -20.487788      -557.5011
   9   2.0000      -1.421174       -38.6721
  10   2.0000      -1.399756       -38.0893
  11   2.0000      -1.372810       -37.3561
  12   2.0000      -1.357086       -36.9282
  13   2.0000      -1.348387       -36.6915
  14   2.0000      -1.339014       -36.4364
  15   2.0000      -1.320836       -35.9418
  16   2.0000      -1.293095       -35.1869
  17   2.0000      -1.272095       -34.6155
  18   2.0000      -0.786131       -21.3917
  19   2.0000      -0.764108       -20.7924
  20   2.0000      -0.732305       -19.9270
  21   2.0000      -0.728470       -19.8227
  22   2.0000      -0.724302       -19.7093
  23   2.0000      -0.716372       -19.4935
  24   2.0000      -0.704145       -19.1608
  25   2.0000      -0.674026       -18.3412
  26   2.0000      -0.667908       -18.1747
  27   2.0000      -0.650764       -17.7082
  28   2.0000      -0.641581       -17.4583
  29   2.0000      -0.625157       -17.0114
  30   2.0000      -0.608322       -16.5533
  31   2.0000      -0.596083       -16.2202
  32   2.0000      -0.582026       -15.8377
  33   2.0000      -0.569789       -15.5047
  34   2.0000      -0.564900       -15.3717
  35   2.0000      -0.551780       -15.0147
  36   2.0000      -0.544005       -14.8031
  37   2.0000      -0.524288       -14.2666
  38   2.0000      -0.515603       -14.0303
  39   2.0000      -0.502086       -13.6625
  40   2.0000      -0.496578       -13.5126
  41   2.0000      -0.495644       -13.4872
  42   2.0000      -0.482554       -13.1310
  43   2.0000      -0.458148       -12.4668
  44   2.0000      -0.437903       -11.9159
  45   0.0000       0.073852         2.0096
  46   0.0000       0.117891         3.2080
  47   0.0000       0.144003         3.9185
  48   0.0000       0.152192         4.1413
  49   0.0000       0.168234         4.5779

MULLIKEN ATOMIC CHARGES
-----------------------
   0 O :   -0.749481
   1 H :    0.347965
   2 H :    0.384471
   3 O :   -0.746095
   4 H :    0.334840
   5 H :    0.370365
   6 O :   -0.732858
   7 H :    0.391572
   8 H :    0.365462
   9 O :   -0.754022
  10 H :    0.345178
  11 H :    0.367162
  12 O :   -0.750698
  13 H :    0.386094
  14 H :    0.356242
  15 O :   -0.714822
  16 H :    0.390856
  17 H :    0.358613
  18 O :   -0.740158
  19 H :    0.372319
  20 H :    0.342277
  21 O :   -0.728226
  22 H :    0.374359
  23 H :    0.381845
  24 O :   -0.701206
  25 H :    0.385242
  26 H :    0.362704
Sum of atomic charges:    0.0000000

LOEWDIN ATOMIC CHARGES
----------------------
   0 O :   -0.312731
   1 H :    0.158214
   2 H :    0.146814
   3 O :   -0.347019
   4 H :    0.152345
   5 H :    0.142403
   6 O :   -0.283424
   7 H :    0.158005
   8 H :    0.181017
   9 O :   -0.353585
  10 H :    0.135641
  11 H :    0.147337
  12 O :   -0.301987
  13 H :    0.153884
  14 H :    0.139596
  15 O :   -0.285408
  16 H :    0.157314
  17 H :    0.145807
  18 O :   -0.362876
  19 H :    0.150482
  20 H :    0.137746
  21 O :   -0.288485
  22 H :    0.172947
  23 H :    0.196642
  24 O :   -0.273917
  25 H :    0.156796
  26 H :    0.176443

  Mayer bond orders larger than 0.100000
B(  0-O ,  1-H ) :   0.8419 B(  0-O ,  2-H ) :   0.7434 B(  3-O ,  4-H ) :   0.8516
B(  3-O ,  5-H ) :   0.7534 B(  5-H , 15-O ) :   0.1083 B(  6-O ,  7-H ) :   0.7933
B(  6-O ,  8-H ) :   0.8214 B(  9-O , 10-H ) :   0.7881 B(  9-O , 11-H ) :   0.8101
B( 12-O , 13-H ) :   0.7908 B( 12-O , 14-H ) :   0.7830 B( 15-O , 16-H ) :   0.7959
B( 15-O , 17-H ) :   0.8207 B( 18-O , 19-H ) :   0.8132 B( 18-O , 20-H ) :   0.8312
B( 21-O , 22-H ) :   0.8264 B( 21-O , 23-H ) :   0.8113 B( 24-O , 25-H ) :   0.8057
B( 24-O , 26-H ) :   0.8296

MP2 TOTAL ENERGY:     -686.920237740 Eh
FINAL SINGLE POINT ENERGY      -686.920237739559

DIPOLE MOMENT
-------------
                                X             Y             Z
Electronic contribution:     -0.27232       0.63303      -0.01852
Nuclear contribution   :     -1.21834       1.69875      -2.09298
                        -----------------------------------------
Total Dipole Moment    :     -1.49066       2.33178      -2.11150
                        -----------------------------------------
Magnitude (a.u.)       :      3.48105
Magnitude (Debye)      :      8.84813

Rotational constants in cm-1:     0.030171     0.016612     0.013085
Rotational constants in MHz :   904.498701   498.007469   392.292649

                             ****ORCA TERMINATED NORMALLY****
TOTAL RUN TIME: 0 days 0 hours 4 minutes 55 seconds 928 msec
