                         Program Version 4.2.0 -  RELEASE  -
|  1> # 12mecn.remya.etal.2.mol7,8,11
|  2> ! MP2 def2-TZVP EnGrad TightSCF
|  3>
|  4> %pal
|  5>     nprocs 6
|  6> end
|  7>
|  8> %maxcore 8000
|  9>
| 10> %scf
| 11>     ConvForced true
| 12> end
| 13>
| 14> *xyz 0 1
| 15> C   1.502241000   0.651296000   1.710523000
| 16> H   1.309219000   1.637164000   2.143202000
| 17> H   2.493408000   0.297996000   2.009069000
| 18> H   0.746597000  -0.059850000   2.055508000
| 19> C   1.447974000   0.738517000   0.269805000
| 20> N   1.405612000   0.808047000  -0.894380000
| 21> C   1.912641000  -2.468050000  -1.750510000
| 22> H   2.876947000  -2.793500000  -2.151200000
| 23> H   1.688016000  -1.463720000  -2.122170000
| 24> H   1.123460000  -3.154780000  -2.069590000
| 25> C   1.977850000  -2.444240000  -0.306900000
| 26> N   2.036566000  -2.426130000   0.858249000
| 27> C   4.214163000   3.378139000   1.593627000
| 28> H   3.242643000   3.657109000   2.012358000
| 29> H   4.969258000   4.086643000   1.941290000
| 30> H   4.482966000   2.372549000   1.931698000
| 31> C   4.130759000   3.388436000   0.150192000
| 32> N   4.050180000   3.381449000  -1.013420000
| 33> *
| 34>
| 35>                          ****END OF INPUT****

CARTESIAN COORDINATES (ANGSTROEM)
---------------------------------
  C      1.502241    0.651296    1.710523
  H      1.309219    1.637164    2.143202
  H      2.493408    0.297996    2.009069
  H      0.746597   -0.059850    2.055508
  C      1.447974    0.738517    0.269805
  N      1.405612    0.808047   -0.894380
  C      1.912641   -2.468050   -1.750510
  H      2.876947   -2.793500   -2.151200
  H      1.688016   -1.463720   -2.122170
  H      1.123460   -3.154780   -2.069590
  C      1.977850   -2.444240   -0.306900
  N      2.036566   -2.426130    0.858249
  C      4.214163    3.378139    1.593627
  H      3.242643    3.657109    2.012358
  H      4.969258    4.086643    1.941290
  H      4.482966    2.372549    1.931698
  C      4.130759    3.388436    0.150192
  N      4.050180    3.381449   -1.013420

 Total Charge           Charge          ....    0
 Multiplicity           Mult            ....    1
 Number of Electrons    NEL             ....   66
 Basis Dimension        Dim             ....  333

ORBITAL ENERGIES
----------------

  NO   OCC          E(Eh)            E(eV)
   0   2.0000     -15.570486      -423.6945
   1   2.0000     -15.570396      -423.6920
   2   2.0000     -15.567991      -423.6266
   3   2.0000     -11.287362      -307.1447
   4   2.0000     -11.282521      -307.0130
   5   2.0000     -11.278158      -306.8943
   6   2.0000     -11.277126      -306.8662
   7   2.0000     -11.275868      -306.8320
   8   2.0000     -11.271506      -306.7133
   9   2.0000      -1.216436       -33.1009
  10   2.0000      -1.211522       -32.9672
  11   2.0000      -1.210198       -32.9311
  12   2.0000      -1.045038       -28.4369
  13   2.0000      -1.038135       -28.2491
  14   2.0000      -1.033866       -28.1329
  15   2.0000      -0.701396       -19.0860
  16   2.0000      -0.694140       -18.8885
  17   2.0000      -0.690471       -18.7887
  18   2.0000      -0.637585       -17.3496
  19   2.0000      -0.635301       -17.2874
  20   2.0000      -0.629220       -17.1220
  21   2.0000      -0.623508       -16.9665
  22   2.0000      -0.621053       -16.8997
  23   2.0000      -0.615920       -16.7600
  24   2.0000      -0.557917       -15.1817
  25   2.0000      -0.553683       -15.0665
  26   2.0000      -0.550963       -14.9925
  27   2.0000      -0.463909       -12.6236
  28   2.0000      -0.460420       -12.5287
  29   2.0000      -0.457923       -12.4607
  30   2.0000      -0.454799       -12.3757
  31   2.0000      -0.450306       -12.2534
  32   2.0000      -0.445196       -12.1144
  33   0.0000       0.103110         2.8058
  34   0.0000       0.134533         3.6608
  35   0.0000       0.149893         4.0788
  36   0.0000       0.156838         4.2678
  37   0.0000       0.162392         4.4189

MULLIKEN ATOMIC CHARGES
-----------------------
   0 C :   -0.261506
   1 H :    0.162047
   2 H :    0.170408
   3 H :    0.187816
   4 C :   -0.128072
   5 N :   -0.130930
   6 C :   -0.285515
   7 H :    0.167137
   8 H :    0.207622
   9 H :    0.166031
  10 C :   -0.111680
  11 N :   -0.143265
  12 C :   -0.281889
  13 H :    0.164239
  14 H :    0.181637
  15 H :    0.167227
  16 C :   -0.155089
  17 N :   -0.076218
Sum of atomic charges:    0.0000000

LOEWDIN ATOMIC CHARGES
----------------------
   0 C :   -0.288872
   1 H :    0.145771
   2 H :    0.153891
   3 H :    0.157917
   4 C :   -0.216860
   5 N :    0.043696
   6 C :   -0.280821
   7 H :    0.152749
   8 H :    0.158425
   9 H :    0.151580
  10 C :   -0.208848
  11 N :    0.031693
  12 C :   -0.287478
  13 H :    0.149809
  14 H :    0.151742
  15 H :    0.150903
  16 C :   -0.223307
  17 N :    0.058007

  Mayer bond orders larger than 0.100000
B(  0-C ,  1-H ) :   0.9156 B(  0-C ,  2-H ) :   0.9197 B(  0-C ,  3-H ) :   0.9058
B(  0-C ,  4-C ) :   0.9040 B(  4-C ,  5-N ) :   2.7624 B(  6-C ,  7-H ) :   0.9146
B(  6-C ,  8-H ) :   0.9025 B(  6-C ,  9-H ) :   0.9157 B(  6-C , 10-C ) :   0.8994
B( 10-C , 11-N ) :   2.7939 B( 12-C , 13-H ) :   0.9218 B( 12-C , 14-H ) :   0.9108
B( 12-C , 15-H ) :   0.9196 B( 12-C , 16-C ) :   0.9005 B( 16-C , 17-N ) :   2.8295

MP2 TOTAL ENERGY:     -397.458079172 Eh
FINAL SINGLE POINT ENERGY      -397.458079171613

DIPOLE MOMENT
-------------
                                X             Y             Z
Electronic contribution:     -0.16138       0.26267      -3.27068
Nuclear contribution   :      0.22998      -0.38417       4.62542
                        -----------------------------------------
Total Dipole Moment    :      0.06860      -0.12150       1.35474
                        -----------------------------------------
Magnitude (a.u.)       :      1.36191
Magnitude (Debye)      :      3.46169

Rotational constants in cm-1:     0.070848     0.019009     0.017172
Rotational constants in MHz :  2123.979663   569.861947   514.808111

                             ****ORCA TERMINATED NORMALLY****
TOTAL RUN TIME: 0 days 0 hours 3 minutes 54 seconds 705 msec
