                         Program Version 4.2.0 -  RELEASE  -
|  1> # 12h2o.su.etal.mol0,4,6,10,11
|  2> ! MP2 def2-TZVP EnGrad TightSCF
|  3>
|  4> %pal
|  5>     nprocs 6
|  6> end
|  7>
|  8> %maxcore 8000
|  9>
| 10> %scf
| 11>     ConvForced true
| 12> end
| 13>
| 14> *xyz 0 1
| 15> O   1.794470000   0.923410000   2.768350000
| 16> H   2.338250000   1.359750000   3.430940000
| 17> H   0.879480000   1.303000000   2.865760000
| 18> O  -0.885520000   1.737840000   0.052730000
| 19> H  -1.032320000   2.090180000  -0.841890000
| 20> H  -1.284090000   0.839590000   0.017130000
| 21> O   1.737840000   0.885520000  -0.052730000
| 22> H   2.090180000   1.032320000   0.841890000
| 23> H   0.839590000   1.284090000  -0.017130000
| 24> O  -0.923410000   1.794470000  -2.768350000
| 25> H  -1.359750000   2.338250000  -3.430940000
| 26> H  -1.303000000   0.879480000  -2.865760000
| 27> O  -0.741530000   1.752130000   2.896280000
| 28> H  -0.920500000   2.036450000   1.984040000
| 29> H  -1.242140000   0.921210000   2.984230000
| 30> *
| 31>
| 32>                          ****END OF INPUT****

CARTESIAN COORDINATES (ANGSTROEM)
---------------------------------
  O      1.794470    0.923410    2.768350
  H      2.338250    1.359750    3.430940
  H      0.879480    1.303000    2.865760
  O     -0.885520    1.737840    0.052730
  H     -1.032320    2.090180   -0.841890
  H     -1.284090    0.839590    0.017130
  O      1.737840    0.885520   -0.052730
  H      2.090180    1.032320    0.841890
  H      0.839590    1.284090   -0.017130
  O     -0.923410    1.794470   -2.768350
  H     -1.359750    2.338250   -3.430940
  H     -1.303000    0.879480   -2.865760
  O     -0.741530    1.752130    2.896280
  H     -0.920500    2.036450    1.984040
  H     -1.242140    0.921210    2.984230

 Total Charge           Charge          ....    0
 Multiplicity           Mult            ....    1
 Number of Electrons    NEL             ....   50
 Basis Dimension        Dim             ....  215

ORBITAL ENERGIES
----------------

  NO   OCC          E(Eh)            E(eV)
   0   2.0000     -20.603301      -560.6443
   1   2.0000     -20.591512      -560.3235
   2   2.0000     -20.576367      -559.9114
   3   2.0000     -20.524355      -558.4961
   4   2.0000     -20.482047      -557.3448
   5   2.0000      -1.385219       -37.6937
   6   2.0000      -1.374643       -37.4059
   7   2.0000      -1.362974       -37.0884
   8   2.0000      -1.309020       -35.6203
   9   2.0000      -1.266504       -34.4633
  10   2.0000      -0.750275       -20.4160
  11   2.0000      -0.741301       -20.1718
  12   2.0000      -0.723346       -19.6832
  13   2.0000      -0.694208       -18.8904
  14   2.0000      -0.655431       -17.8352
  15   2.0000      -0.635405       -17.2902
  16   2.0000      -0.613824       -16.7030
  17   2.0000      -0.589264       -16.0347
  18   2.0000      -0.565834       -15.3971
  19   2.0000      -0.545686       -14.8489
  20   2.0000      -0.537938       -14.6380
  21   2.0000      -0.507097       -13.7988
  22   2.0000      -0.499260       -13.5856
  23   2.0000      -0.468323       -12.7437
  24   2.0000      -0.433095       -11.7851
  25   0.0000       0.088238         2.4011
  26   0.0000       0.121879         3.3165
  27   0.0000       0.158742         4.3196
  28   0.0000       0.174594         4.7509
  29   0.0000       0.191927         5.2226

MULLIKEN ATOMIC CHARGES
-----------------------
   0 O :   -0.732244
   1 H :    0.329295
   2 H :    0.366909
   3 O :   -0.720424
   4 H :    0.390889
   5 H :    0.342220
   6 O :   -0.737317
   7 H :    0.360457
   8 H :    0.338136
   9 O :   -0.687881
  10 H :    0.355554
  11 H :    0.354270
  12 O :   -0.691922
  13 H :    0.387210
  14 H :    0.344850
Sum of atomic charges:    0.0000000

LOEWDIN ATOMIC CHARGES
----------------------
   0 O :   -0.340940
   1 H :    0.149906
   2 H :    0.143081
   3 O :   -0.285077
   4 H :    0.159070
   5 H :    0.171990
   6 O :   -0.373453
   7 H :    0.144071
   8 H :    0.132353
   9 O :   -0.305019
  10 H :    0.165496
  11 H :    0.186166
  12 O :   -0.275264
  13 H :    0.157895
  14 H :    0.169725

  Mayer bond orders larger than 0.100000
B(  0-O ,  1-H ) :   0.8544 B(  0-O ,  2-H ) :   0.7686 B(  3-O ,  4-H ) :   0.7888
B(  3-O ,  5-H ) :   0.8399 B(  6-O ,  7-H ) :   0.8205 B(  6-O ,  8-H ) :   0.8261
B(  9-O , 10-H ) :   0.8400 B(  9-O , 11-H ) :   0.8349 B( 12-O , 13-H ) :   0.8003
B( 12-O , 14-H ) :   0.8450

MP2 TOTAL ENERGY:     -381.597864430 Eh
FINAL SINGLE POINT ENERGY      -381.597864429661

DIPOLE MOMENT
-------------
                                X             Y             Z
Electronic contribution:     -0.08176       0.20838      -0.16056
Nuclear contribution   :     -2.46212      -0.08525      -0.68611
                        -----------------------------------------
Total Dipole Moment    :     -2.54388       0.12313      -0.84667
                        -----------------------------------------
Magnitude (a.u.)       :      2.68390
Magnitude (Debye)      :      6.82194

Rotational constants in cm-1:     0.123740     0.038172     0.029530
Rotational constants in MHz :  3709.646796  1144.369757   885.292934

                             ****ORCA TERMINATED NORMALLY****
TOTAL RUN TIME: 0 days 0 hours 0 minutes 38 seconds 733 msec
