                         Program Version 4.2.0 -  RELEASE  -
|  1> ! MP2 def2-TZVP EnGrad TightSCF FrozenCore
|  2>
|  3> %pal
|  4>     nprocs 12
|  5> end
|  6>
|  7> %maxcore 8000
|  8>
|  9> %scf
| 10>     ConvForced true
| 11> end
| 12>
| 13> *xyz 0 1
| 14> O     1.1386907544    -1.4558998651    -0.0824200597
| 15> H     0.1514631843    -1.3918625034    -0.0523264935
| 16> C     1.4963674049    -2.2372614063    -1.2119162038
| 17> H     2.5884491087    -2.2905839398    -1.2453328654
| 18> H     1.1430084538    -1.7986999361    -2.1571911232
| 19> H     1.1028017103    -3.2611717142    -1.1369618164
| 20> O    -1.5787514148    -1.2118882917     0.0136873116
| 21> H    -1.7878649171    -0.2641824711    -0.1600710919
| 22> C    -2.0802040943    -1.535716029      1.3053655714
| 23> H    -1.7857516944    -2.5659009477     1.5229634059
| 24> H    -3.1772223959    -1.4751300521     1.3367488084
| 25> H    -1.6704062794    -0.881905532      2.0876824831
| 26> O    -2.1502786509     1.4643815099    -0.2949623347
| 27> H    -3.0036916598     1.6729542312    -0.7031946496
| 28> C    -1.1475866114     2.3188084309    -0.8720669121
| 29> H    -0.1815271851     1.9976898109    -0.4738155471
| 30> H    -1.3271198166     3.3661976261    -0.5972352251
| 31> H    -1.1277517883     2.23208893      -1.9666037772
| 32> O     1.878368313      1.2043887108    -0.047241448
| 33> H     1.6720738287     0.2415824991    -0.096223126
| 34> C     2.5466024331     1.4319163132     1.1767394557
| 35> H     2.7656159838     2.5030340344     1.2434992735
| 36> H     3.5022030887     0.8871732864     1.2420951231
| 37> H     1.9404135715     1.1543763144     2.0547274015
| 38> *
| 39>
| 40>                          ****END OF INPUT****

CARTESIAN COORDINATES (ANGSTROEM)
---------------------------------
  O      1.138691   -1.455900   -0.082420
  H      0.151463   -1.391863   -0.052326
  C      1.496367   -2.237261   -1.211916
  H      2.588449   -2.290584   -1.245333
  H      1.143008   -1.798700   -2.157191
  H      1.102802   -3.261172   -1.136962
  O     -1.578751   -1.211888    0.013687
  H     -1.787865   -0.264182   -0.160071
  C     -2.080204   -1.535716    1.305366
  H     -1.785752   -2.565901    1.522963
  H     -3.177222   -1.475130    1.336749
  H     -1.670406   -0.881906    2.087682
  O     -2.150279    1.464382   -0.294962
  H     -3.003692    1.672954   -0.703195
  C     -1.147587    2.318808   -0.872067
  H     -0.181527    1.997690   -0.473816
  H     -1.327120    3.366198   -0.597235
  H     -1.127752    2.232089   -1.966604
  O      1.878368    1.204389   -0.047241
  H      1.672074    0.241582   -0.096223
  C      2.546602    1.431916    1.176739
  H      2.765616    2.503034    1.243499
  H      3.502203    0.887173    1.242095
  H      1.940414    1.154376    2.054727

 Total Charge           Charge          ....    0
 Multiplicity           Mult            ....    1
 Number of Electrons    NEL             ....   72
 Basis Dimension        Dim             ....  344

ORBITAL ENERGIES
----------------

  NO   OCC          E(Eh)            E(eV)
   0   2.0000     -20.580825      -560.0327
   1   2.0000     -20.553503      -559.2893
   2   2.0000     -20.540511      -558.9357
   3   2.0000     -20.520038      -558.3786
   4   2.0000     -11.271872      -306.7232
   5   2.0000     -11.270875      -306.6961
   6   2.0000     -11.262167      -306.4592
   7   2.0000     -11.250078      -306.1302
   8   2.0000      -1.376721       -37.4625
   9   2.0000      -1.356358       -36.9084
  10   2.0000      -1.340253       -36.4701
  11   2.0000      -1.320453       -35.9313
  12   2.0000      -0.930076       -25.3087
  13   2.0000      -0.921653       -25.0795
  14   2.0000      -0.911793       -24.8111
  15   2.0000      -0.896304       -24.3897
  16   2.0000      -0.717808       -19.5325
  17   2.0000      -0.696735       -18.9591
  18   2.0000      -0.680163       -18.5082
  19   2.0000      -0.667511       -18.1639
  20   2.0000      -0.627091       -17.0640
  21   2.0000      -0.615951       -16.7609
  22   2.0000      -0.606697       -16.5091
  23   2.0000      -0.605620       -16.4798
  24   2.0000      -0.592094       -16.1117
  25   2.0000      -0.590055       -16.0562
  26   2.0000      -0.581263       -15.8170
  27   2.0000      -0.567201       -15.4343
  28   2.0000      -0.523765       -14.2524
  29   2.0000      -0.505666       -13.7599
  30   2.0000      -0.492936       -13.4135
  31   2.0000      -0.474461       -12.9107
  32   2.0000      -0.466978       -12.7071
  33   2.0000      -0.446766       -12.1571
  34   2.0000      -0.434966       -11.8360
  35   2.0000      -0.419270       -11.4089
  36   0.0000       0.119132         3.2418
  37   0.0000       0.150249         4.0885
  38   0.0000       0.158364         4.3093
  39   0.0000       0.168547         4.5864
  40   0.0000       0.186233         5.0676

MULLIKEN ATOMIC CHARGES
-----------------------
   0 O :   -0.558838
   1 H :    0.363184
   2 C :   -0.165654
   3 H :    0.126432
   4 H :    0.113686
   5 H :    0.115697
   6 O :   -0.554662
   7 H :    0.363056
   8 C :   -0.170983
   9 H :    0.131263
  10 H :    0.114943
  11 H :    0.124877
  12 O :   -0.539081
  13 H :    0.335560
  14 C :   -0.188511
  15 H :    0.178202
  16 H :    0.115681
  17 H :    0.117080
  18 O :   -0.538792
  19 H :    0.351872
  20 C :   -0.155433
  21 H :    0.115347
  22 H :    0.104926
  23 H :    0.100151
Sum of atomic charges:   -0.0000000

LOEWDIN ATOMIC CHARGES
----------------------
   0 O :   -0.090757
   1 H :    0.164840
   2 C :   -0.388822
   3 H :    0.108503
   4 H :    0.098262
   5 H :    0.101160
   6 O :   -0.087941
   7 H :    0.165806
   8 C :   -0.383849
   9 H :    0.110163
  10 H :    0.101237
  11 H :    0.101814
  12 O :   -0.089683
  13 H :    0.178544
  14 C :   -0.361847
  15 H :    0.119113
  16 H :    0.101827
  17 H :    0.100491
  18 O :   -0.103873
  19 H :    0.162012
  20 C :   -0.401257
  21 H :    0.104219
  22 H :    0.096665
  23 H :    0.093369

  Mayer bond orders larger than 0.100000
B(  0-O ,  1-H ) :   0.7516 B(  0-O ,  2-C ) :   0.8939 B(  0-O , 19-H ) :   0.1014
B(  1-H ,  6-O ) :   0.1096 B(  2-C ,  3-H ) :   0.9419 B(  2-C ,  4-H ) :   0.9405
B(  2-C ,  5-H ) :   0.9377 B(  6-O ,  7-H ) :   0.7686 B(  6-O ,  8-C ) :   0.8802
B(  8-C ,  9-H ) :   0.9414 B(  8-C , 10-H ) :   0.9386 B(  8-C , 11-H ) :   0.9387
B( 12-O , 13-H ) :   0.8373 B( 12-O , 14-C ) :   0.8472 B( 14-C , 15-H ) :   0.9149
B( 14-C , 16-H ) :   0.9361 B( 14-C , 17-H ) :   0.9421 B( 18-O , 19-H ) :   0.7723
B( 18-O , 20-C ) :   0.9255 B( 20-C , 21-H ) :   0.9426 B( 20-C , 22-H ) :   0.9378
B( 20-C , 23-H ) :   0.9382

MP2 TOTAL ENERGY:     -462.070748325 Eh
FINAL SINGLE POINT ENERGY      -462.070748325342

DIPOLE MOMENT
-------------
                                X             Y             Z
Electronic contribution:     -1.94440       0.07659      -1.06333
Nuclear contribution   :      0.83714       0.13259       0.94139
                        -----------------------------------------
Total Dipole Moment    :     -1.10726       0.20918      -0.12194
                        -----------------------------------------
Magnitude (a.u.)       :      1.13343
Magnitude (Debye)      :      2.88094

Rotational constants in cm-1:     0.037531     0.032102     0.021433
Rotational constants in MHz :  1125.139224   962.404768   642.547417

                             ****ORCA TERMINATED NORMALLY****
TOTAL RUN TIME: 0 days 0 hours 4 minutes 20 seconds 99 msec
