                         Program Version 4.2.0 -  RELEASE  -
|  1> # 12h2o.su.etal.mol1,2,3,6,10,11
|  2> ! MP2 def2-TZVP EnGrad TightSCF
|  3>
|  4> %pal
|  5>     nprocs 6
|  6> end
|  7>
|  8> %maxcore 8000
|  9>
| 10> %scf
| 11>     ConvForced true
| 12> end
| 13>
| 14> *xyz 0 1
| 15> O  -1.794470000  -0.923410000   2.768350000
| 16> H  -2.338250000  -1.359750000   3.430940000
| 17> H  -0.879480000  -1.303000000   2.865760000
| 18> O   0.923410000  -1.794470000  -2.768350000
| 19> H   1.359750000  -2.338250000  -3.430940000
| 20> H   1.303000000  -0.879480000  -2.865760000
| 21> O  -1.752130000  -0.741530000  -2.896280000
| 22> H  -2.036450000  -0.920500000  -1.984040000
| 23> H  -0.921210000  -1.242140000  -2.984230000
| 24> O   1.737840000   0.885520000  -0.052730000
| 25> H   2.090180000   1.032320000   0.841890000
| 26> H   0.839590000   1.284090000  -0.017130000
| 27> O  -0.923410000   1.794470000  -2.768350000
| 28> H  -1.359750000   2.338250000  -3.430940000
| 29> H  -1.303000000   0.879480000  -2.865760000
| 30> O  -0.741530000   1.752130000   2.896280000
| 31> H  -0.920500000   2.036450000   1.984040000
| 32> H  -1.242140000   0.921210000   2.984230000
| 33> *
| 34>
| 35>                          ****END OF INPUT****

CARTESIAN COORDINATES (ANGSTROEM)
---------------------------------
  O     -1.794470   -0.923410    2.768350
  H     -2.338250   -1.359750    3.430940
  H     -0.879480   -1.303000    2.865760
  O      0.923410   -1.794470   -2.768350
  H      1.359750   -2.338250   -3.430940
  H      1.303000   -0.879480   -2.865760
  O     -1.752130   -0.741530   -2.896280
  H     -2.036450   -0.920500   -1.984040
  H     -0.921210   -1.242140   -2.984230
  O      1.737840    0.885520   -0.052730
  H      2.090180    1.032320    0.841890
  H      0.839590    1.284090   -0.017130
  O     -0.923410    1.794470   -2.768350
  H     -1.359750    2.338250   -3.430940
  H     -1.303000    0.879480   -2.865760
  O     -0.741530    1.752130    2.896280
  H     -0.920500    2.036450    1.984040
  H     -1.242140    0.921210    2.984230

 Total Charge           Charge          ....    0
 Multiplicity           Mult            ....    1
 Number of Electrons    NEL             ....   60
 Basis Dimension        Dim             ....  258

ORBITAL ENERGIES
----------------

  NO   OCC          E(Eh)            E(eV)
   0   2.0000     -20.595664      -560.4365
   1   2.0000     -20.584775      -560.1402
   2   2.0000     -20.565865      -559.6256
   3   2.0000     -20.552046      -559.2496
   4   2.0000     -20.540155      -558.9260
   5   2.0000     -20.516421      -558.2802
   6   2.0000      -1.373320       -37.3700
   7   2.0000      -1.364816       -37.1385
   8   2.0000      -1.352315       -36.7984
   9   2.0000      -1.327965       -36.1358
  10   2.0000      -1.322263       -35.9806
  11   2.0000      -1.298192       -35.3256
  12   2.0000      -0.740479       -20.1495
  13   2.0000      -0.731538       -19.9062
  14   2.0000      -0.713750       -19.4221
  15   2.0000      -0.691908       -18.8278
  16   2.0000      -0.689576       -18.7643
  17   2.0000      -0.685431       -18.6515
  18   2.0000      -0.612888       -16.6775
  19   2.0000      -0.611645       -16.6437
  20   2.0000      -0.585783       -15.9400
  21   2.0000      -0.568775       -15.4772
  22   2.0000      -0.564569       -15.3627
  23   2.0000      -0.546695       -14.8763
  24   2.0000      -0.532247       -14.4832
  25   2.0000      -0.525473       -14.2989
  26   2.0000      -0.498672       -13.5696
  27   2.0000      -0.495300       -13.4778
  28   2.0000      -0.487143       -13.2558
  29   2.0000      -0.467178       -12.7125
  30   0.0000       0.095437         2.5970
  31   0.0000       0.116204         3.1621
  32   0.0000       0.136884         3.7248
  33   0.0000       0.157016         4.2726
  34   0.0000       0.176440         4.8012

MULLIKEN ATOMIC CHARGES
-----------------------
   0 O :   -0.696818
   1 H :    0.355171
   2 H :    0.362406
   3 O :   -0.704202
   4 H :    0.350850
   5 H :    0.378395
   6 O :   -0.701919
   7 H :    0.352623
   8 H :    0.374108
   9 O :   -0.685021
  10 H :    0.338474
  11 H :    0.342125
  12 O :   -0.738016
  13 H :    0.325124
  14 H :    0.364436
  15 O :   -0.703451
  16 H :    0.327414
  17 H :    0.358298
Sum of atomic charges:   -0.0000000

LOEWDIN ATOMIC CHARGES
----------------------
   0 O :   -0.311167
   1 H :    0.164741
   2 H :    0.189121
   3 O :   -0.311082
   4 H :    0.163234
   5 H :    0.194750
   6 O :   -0.284241
   7 H :    0.170862
   8 H :    0.153686
   9 O :   -0.339260
  10 H :    0.164919
  11 H :    0.171014
  12 O :   -0.376019
  13 H :    0.148705
  14 H :    0.140917
  15 O :   -0.345551
  16 H :    0.157771
  17 H :    0.147599

  Mayer bond orders larger than 0.100000
B(  0-O ,  1-H ) :   0.8401 B(  0-O ,  2-H ) :   0.8293 B(  3-O ,  4-H ) :   0.8424
B(  3-O ,  5-H ) :   0.8160 B(  6-O ,  7-H ) :   0.8410 B(  6-O ,  8-H ) :   0.7950
B(  9-O , 10-H ) :   0.8510 B(  9-O , 11-H ) :   0.8435 B( 12-O , 13-H ) :   0.8604
B( 12-O , 14-H ) :   0.7753 B( 15-O , 16-H ) :   0.8574 B( 15-O , 17-H ) :   0.8166

MP2 TOTAL ENERGY:     -457.910153593 Eh
FINAL SINGLE POINT ENERGY      -457.910153593376

DIPOLE MOMENT
-------------
                                X             Y             Z
Electronic contribution:      0.08365      -0.37295       0.00836
Nuclear contribution   :     -0.25610      -1.24583       0.14168
                        -----------------------------------------
Total Dipole Moment    :     -0.17245      -1.61877       0.15004
                        -----------------------------------------
Magnitude (a.u.)       :      1.63483
Magnitude (Debye)      :      4.15542

Rotational constants in cm-1:     0.044320     0.018812     0.018177
Rotational constants in MHz :  1328.677885   563.982382   544.922613

                             ****ORCA TERMINATED NORMALLY****
TOTAL RUN TIME: 0 days 0 hours 1 minutes 4 seconds 102 msec
