                         Program Version 4.2.0 -  RELEASE  -
|  1> # 12mecn.remya.etal.2.mol2
|  2> ! MP2 def2-TZVP EnGrad TightSCF
|  3>
|  4> %pal
|  5>     nprocs 6
|  6> end
|  7>
|  8> %maxcore 8000
|  9>
| 10> %scf
| 11>     ConvForced true
| 12> end
| 13>
| 14> *xyz 0 1
| 15> C  -4.219070000  -3.477410000  -1.501740000
| 16> H  -3.251530000  -3.803540000  -1.893830000
| 17> H  -4.452920000  -2.481700000  -1.890840000
| 18> H  -4.992170000  -4.178130000  -1.824640000
| 19> C  -4.154550000  -3.418790000  -0.058340000
| 20> N  -4.091140000  -3.354840000   1.104432000
| 21> *
| 22>
| 23>                          ****END OF INPUT****

CARTESIAN COORDINATES (ANGSTROEM)
---------------------------------
  C     -4.219070   -3.477410   -1.501740
  H     -3.251530   -3.803540   -1.893830
  H     -4.452920   -2.481700   -1.890840
  H     -4.992170   -4.178130   -1.824640
  C     -4.154550   -3.418790   -0.058340
  N     -4.091140   -3.354840    1.104432

 Total Charge           Charge          ....    0
 Multiplicity           Mult            ....    1
 Number of Electrons    NEL             ....   22
 Basis Dimension        Dim             ....  111

ORBITAL ENERGIES
----------------

  NO   OCC          E(Eh)            E(eV)
   0   2.0000     -15.573404      -423.7739
   1   2.0000     -11.285564      -307.0958
   2   2.0000     -11.280355      -306.9541
   3   2.0000      -1.215049       -33.0632
   4   2.0000      -1.044054       -28.4102
   5   2.0000      -0.700887       -19.0721
   6   2.0000      -0.632258       -17.2046
   7   2.0000      -0.631542       -17.1851
   8   2.0000      -0.556208       -15.1352
   9   2.0000      -0.458184       -12.4678
  10   2.0000      -0.458021       -12.4634
  11   0.0000       0.118696         3.2299
  12   0.0000       0.170857         4.6492
  13   0.0000       0.171203         4.6587
  14   0.0000       0.202076         5.4988
  15   0.0000       0.224267         6.1026

MULLIKEN ATOMIC CHARGES
-----------------------
   0 C :   -0.280437
   1 H :    0.172204
   2 H :    0.172297
   3 H :    0.172218
   4 C :   -0.145728
   5 N :   -0.090554
Sum of atomic charges:    0.0000000

LOEWDIN ATOMIC CHARGES
----------------------
   0 C :   -0.284054
   1 H :    0.152723
   2 H :    0.153098
   3 H :    0.151070
   4 C :   -0.219431
   5 N :    0.046593

  Mayer bond orders larger than 0.100000
B(  0-C ,  1-H ) :   0.9165 B(  0-C ,  2-H ) :   0.9165 B(  0-C ,  3-H ) :   0.9166
B(  0-C ,  4-C ) :   0.9022 B(  4-C ,  5-N ) :   2.8370

MP2 TOTAL ENERGY:     -132.483133564 Eh
FINAL SINGLE POINT ENERGY      -132.483133563825

DIPOLE MOMENT
-------------
                                X             Y             Z
Electronic contribution:      0.13514       0.12156       3.11503
Nuclear contribution   :     -0.20986      -0.19268      -4.64353
                        -----------------------------------------
Total Dipole Moment    :     -0.07473      -0.07113      -1.52850
                        -----------------------------------------
Magnitude (a.u.)       :      1.53198
Magnitude (Debye)      :      3.89398

Rotational constants in cm-1:     5.259049     0.308294     0.308233
Rotational constants in MHz : 157662.329900  9242.416927  9240.589932

                             ****ORCA TERMINATED NORMALLY****
TOTAL RUN TIME: 0 days 0 hours 0 minutes 11 seconds 873 msec
