                         Program Version 4.2.0 -  RELEASE  -
|  1> # 12h2o.su.etal.mol0,3,4,5,9,10,11
|  2> ! MP2 def2-TZVP EnGrad TightSCF
|  3>
|  4> %pal
|  5>     nprocs 6
|  6> end
|  7>
|  8> %maxcore 8000
|  9>
| 10> %scf
| 11>     ConvForced true
| 12> end
| 13>
| 14> *xyz 0 1
| 15> O   1.794470000   0.923410000   2.768350000
| 16> H   2.338250000   1.359750000   3.430940000
| 17> H   0.879480000   1.303000000   2.865760000
| 18> O  -1.752130000  -0.741530000  -2.896280000
| 19> H  -2.036450000  -0.920500000  -1.984040000
| 20> H  -0.921210000  -1.242140000  -2.984230000
| 21> O  -0.885520000   1.737840000   0.052730000
| 22> H  -1.032320000   2.090180000  -0.841890000
| 23> H  -1.284090000   0.839590000   0.017130000
| 24> O   0.885520000  -1.737840000   0.052730000
| 25> H   1.284090000  -0.839590000   0.017130000
| 26> H   1.032320000  -2.090180000  -0.841890000
| 27> O   0.741530000  -1.752130000   2.896280000
| 28> H   0.920500000  -2.036450000   1.984040000
| 29> H   1.242140000  -0.921210000   2.984230000
| 30> O  -0.923410000   1.794470000  -2.768350000
| 31> H  -1.359750000   2.338250000  -3.430940000
| 32> H  -1.303000000   0.879480000  -2.865760000
| 33> O  -0.741530000   1.752130000   2.896280000
| 34> H  -0.920500000   2.036450000   1.984040000
| 35> H  -1.242140000   0.921210000   2.984230000
| 36> *
| 37>
| 38>                          ****END OF INPUT****

CARTESIAN COORDINATES (ANGSTROEM)
---------------------------------
  O      1.794470    0.923410    2.768350
  H      2.338250    1.359750    3.430940
  H      0.879480    1.303000    2.865760
  O     -1.752130   -0.741530   -2.896280
  H     -2.036450   -0.920500   -1.984040
  H     -0.921210   -1.242140   -2.984230
  O     -0.885520    1.737840    0.052730
  H     -1.032320    2.090180   -0.841890
  H     -1.284090    0.839590    0.017130
  O      0.885520   -1.737840    0.052730
  H      1.284090   -0.839590    0.017130
  H      1.032320   -2.090180   -0.841890
  O      0.741530   -1.752130    2.896280
  H      0.920500   -2.036450    1.984040
  H      1.242140   -0.921210    2.984230
  O     -0.923410    1.794470   -2.768350
  H     -1.359750    2.338250   -3.430940
  H     -1.303000    0.879480   -2.865760
  O     -0.741530    1.752130    2.896280
  H     -0.920500    2.036450    1.984040
  H     -1.242140    0.921210    2.984230

 Total Charge           Charge          ....    0
 Multiplicity           Mult            ....    1
 Number of Electrons    NEL             ....   70
 Basis Dimension        Dim             ....  301

ORBITAL ENERGIES
----------------

  NO   OCC          E(Eh)            E(eV)
   0   2.0000     -20.626600      -561.2783
   1   2.0000     -20.592053      -560.3383
   2   2.0000     -20.568679      -559.7022
   3   2.0000     -20.563574      -559.5633
   4   2.0000     -20.562055      -559.5220
   5   2.0000     -20.528476      -558.6082
   6   2.0000     -20.498054      -557.7804
   7   2.0000      -1.412004       -38.4226
   8   2.0000      -1.370172       -37.2843
   9   2.0000      -1.357608       -36.9424
  10   2.0000      -1.349833       -36.7308
  11   2.0000      -1.341417       -36.5018
  12   2.0000      -1.312072       -35.7033
  13   2.0000      -1.282801       -34.9068
  14   2.0000      -0.769145       -20.9295
  15   2.0000      -0.734607       -19.9897
  16   2.0000      -0.731790       -19.9130
  17   2.0000      -0.721946       -19.6452
  18   2.0000      -0.706000       -19.2112
  19   2.0000      -0.695787       -18.9333
  20   2.0000      -0.662069       -18.0158
  21   2.0000      -0.650188       -17.6925
  22   2.0000      -0.613072       -16.6825
  23   2.0000      -0.607680       -16.5358
  24   2.0000      -0.596459       -16.2305
  25   2.0000      -0.580275       -15.7901
  26   2.0000      -0.556235       -15.1359
  27   2.0000      -0.550370       -14.9763
  28   2.0000      -0.538902       -14.6643
  29   2.0000      -0.519004       -14.1228
  30   2.0000      -0.515095       -14.0165
  31   2.0000      -0.511851       -13.9282
  32   2.0000      -0.497897       -13.5485
  33   2.0000      -0.475670       -12.9436
  34   2.0000      -0.448214       -12.1965
  35   0.0000       0.064107         1.7444
  36   0.0000       0.118003         3.2110
  37   0.0000       0.135759         3.6942
  38   0.0000       0.145957         3.9717
  39   0.0000       0.171971         4.6796

MULLIKEN ATOMIC CHARGES
-----------------------
   0 O :   -0.742128
   1 H :    0.334841
   2 H :    0.384986
   3 O :   -0.671243
   4 H :    0.358968
   5 H :    0.359261
   6 O :   -0.710321
   7 H :    0.383572
   8 H :    0.317820
   9 O :   -0.700080
  10 H :    0.369478
  11 H :    0.332376
  12 O :   -0.735311
  13 H :    0.358695
  14 H :    0.349390
  15 O :   -0.736398
  16 H :    0.342951
  17 H :    0.368287
  18 O :   -0.703441
  19 H :    0.388433
  20 H :    0.349864
Sum of atomic charges:   -0.0000000

LOEWDIN ATOMIC CHARGES
----------------------
   0 O :   -0.342599
   1 H :    0.152762
   2 H :    0.146298
   3 O :   -0.263747
   4 H :    0.173078
   5 H :    0.176327
   6 O :   -0.324297
   7 H :    0.156381
   8 H :    0.159166
   9 O :   -0.318354
  10 H :    0.182777
  11 H :    0.161175
  12 O :   -0.359564
  13 H :    0.146642
  14 H :    0.141932
  15 O :   -0.338950
  16 H :    0.156879
  17 H :    0.142775
  18 O :   -0.278016
  19 H :    0.159085
  20 H :    0.170250

  Mayer bond orders larger than 0.100000
B(  0-O ,  1-H ) :   0.8519 B(  0-O ,  2-H ) :   0.7554 B(  3-O ,  4-H ) :   0.8355
B(  3-O ,  5-H ) :   0.8348 B(  6-O ,  7-H ) :   0.7932 B(  6-O ,  8-H ) :   0.8529
B(  9-O , 10-H ) :   0.8217 B(  9-O , 11-H ) :   0.8503 B( 12-O , 13-H ) :   0.8344
B( 12-O , 14-H ) :   0.8139 B( 15-O , 16-H ) :   0.8475 B( 15-O , 17-H ) :   0.7715
B( 18-O , 19-H ) :   0.7965 B( 18-O , 20-H ) :   0.8383

MP2 TOTAL ENERGY:     -534.244432900 Eh
FINAL SINGLE POINT ENERGY      -534.244432900084

DIPOLE MOMENT
-------------
                                X             Y             Z
Electronic contribution:     -0.21174       0.09534      -0.20246
Nuclear contribution   :     -0.53316      -0.19549      -2.23466
                        -----------------------------------------
Total Dipole Moment    :     -0.74490      -0.10015      -2.43713
                        -----------------------------------------
Magnitude (a.u.)       :      2.55039
Magnitude (Debye)      :      6.48258

Rotational constants in cm-1:     0.044459     0.019340     0.015225
Rotational constants in MHz :  1332.857184   579.808073   456.420165

                             ****ORCA TERMINATED NORMALLY****
TOTAL RUN TIME: 0 days 0 hours 1 minutes 41 seconds 974 msec
