                         Program Version 4.2.0 -  RELEASE  -
|  1> # 12h2o.su.etal.mol0,2,4,5,7,8,9,10,11
|  2> ! MP2 def2-TZVP EnGrad TightSCF
|  3>
|  4> %pal
|  5>     nprocs 6
|  6> end
|  7>
|  8> %maxcore 8000
|  9>
| 10> %scf
| 11>     ConvForced true
| 12> end
| 13>
| 14> *xyz 0 1
| 15> O   1.794470000   0.923410000   2.768350000
| 16> H   2.338250000   1.359750000   3.430940000
| 17> H   0.879480000   1.303000000   2.865760000
| 18> O   0.923410000  -1.794470000  -2.768350000
| 19> H   1.359750000  -2.338250000  -3.430940000
| 20> H   1.303000000  -0.879480000  -2.865760000
| 21> O  -0.885520000   1.737840000   0.052730000
| 22> H  -1.032320000   2.090180000  -0.841890000
| 23> H  -1.284090000   0.839590000   0.017130000
| 24> O   0.885520000  -1.737840000   0.052730000
| 25> H   1.284090000  -0.839590000   0.017130000
| 26> H   1.032320000  -2.090180000  -0.841890000
| 27> O  -1.737840000  -0.885520000  -0.052730000
| 28> H  -2.090180000  -1.032320000   0.841890000
| 29> H  -0.839590000  -1.284090000  -0.017130000
| 30> O   1.752130000   0.741530000  -2.896280000
| 31> H   2.036450000   0.920500000  -1.984040000
| 32> H   0.921210000   1.242140000  -2.984230000
| 33> O   0.741530000  -1.752130000   2.896280000
| 34> H   0.920500000  -2.036450000   1.984040000
| 35> H   1.242140000  -0.921210000   2.984230000
| 36> O  -0.923410000   1.794470000  -2.768350000
| 37> H  -1.359750000   2.338250000  -3.430940000
| 38> H  -1.303000000   0.879480000  -2.865760000
| 39> O  -0.741530000   1.752130000   2.896280000
| 40> H  -0.920500000   2.036450000   1.984040000
| 41> H  -1.242140000   0.921210000   2.984230000
| 42> *
| 43>
| 44>                          ****END OF INPUT****

CARTESIAN COORDINATES (ANGSTROEM)
---------------------------------
  O      1.794470    0.923410    2.768350
  H      2.338250    1.359750    3.430940
  H      0.879480    1.303000    2.865760
  O      0.923410   -1.794470   -2.768350
  H      1.359750   -2.338250   -3.430940
  H      1.303000   -0.879480   -2.865760
  O     -0.885520    1.737840    0.052730
  H     -1.032320    2.090180   -0.841890
  H     -1.284090    0.839590    0.017130
  O      0.885520   -1.737840    0.052730
  H      1.284090   -0.839590    0.017130
  H      1.032320   -2.090180   -0.841890
  O     -1.737840   -0.885520   -0.052730
  H     -2.090180   -1.032320    0.841890
  H     -0.839590   -1.284090   -0.017130
  O      1.752130    0.741530   -2.896280
  H      2.036450    0.920500   -1.984040
  H      0.921210    1.242140   -2.984230
  O      0.741530   -1.752130    2.896280
  H      0.920500   -2.036450    1.984040
  H      1.242140   -0.921210    2.984230
  O     -0.923410    1.794470   -2.768350
  H     -1.359750    2.338250   -3.430940
  H     -1.303000    0.879480   -2.865760
  O     -0.741530    1.752130    2.896280
  H     -0.920500    2.036450    1.984040
  H     -1.242140    0.921210    2.984230

 Total Charge           Charge          ....    0
 Multiplicity           Mult            ....    1
 Number of Electrons    NEL             ....   90
 Basis Dimension        Dim             ....  387

ORBITAL ENERGIES
----------------

  NO   OCC          E(Eh)            E(eV)
   0   2.0000     -20.625160      -561.2391
   1   2.0000     -20.592769      -560.3577
   2   2.0000     -20.579990      -560.0100
   3   2.0000     -20.563245      -559.5543
   4   2.0000     -20.561630      -559.5104
   5   2.0000     -20.561010      -559.4935
   6   2.0000     -20.541459      -558.9615
   7   2.0000     -20.531838      -558.6997
   8   2.0000     -20.502051      -557.8892
   9   2.0000      -1.406040       -38.2603
  10   2.0000      -1.381942       -37.6046
  11   2.0000      -1.369773       -37.2734
  12   2.0000      -1.353230       -36.8233
  13   2.0000      -1.348112       -36.6840
  14   2.0000      -1.341873       -36.5142
  15   2.0000      -1.324731       -36.0478
  16   2.0000      -1.315041       -35.7841
  17   2.0000      -1.286778       -35.0150
  18   2.0000      -0.771690       -20.9987
  19   2.0000      -0.742600       -20.2072
  20   2.0000      -0.730693       -19.8832
  21   2.0000      -0.725912       -19.7531
  22   2.0000      -0.716249       -19.4901
  23   2.0000      -0.716065       -19.4851
  24   2.0000      -0.702545       -19.1172
  25   2.0000      -0.698668       -19.0117
  26   2.0000      -0.665296       -18.1036
  27   2.0000      -0.649700       -17.6792
  28   2.0000      -0.626886       -17.0584
  29   2.0000      -0.620236       -16.8775
  30   2.0000      -0.600117       -16.3300
  31   2.0000      -0.593830       -16.1589
  32   2.0000      -0.588865       -16.0238
  33   2.0000      -0.572108       -15.5678
  34   2.0000      -0.561635       -15.2829
  35   2.0000      -0.548746       -14.9321
  36   2.0000      -0.530774       -14.4431
  37   2.0000      -0.529778       -14.4160
  38   2.0000      -0.517145       -14.0722
  39   2.0000      -0.509471       -13.8634
  40   2.0000      -0.505917       -13.7667
  41   2.0000      -0.499703       -13.5976
  42   2.0000      -0.492222       -13.3940
  43   2.0000      -0.479188       -13.0394
  44   2.0000      -0.452209       -12.3052
  45   0.0000       0.083912         2.2834
  46   0.0000       0.115642         3.1468
  47   0.0000       0.128931         3.5084
  48   0.0000       0.147117         4.0032
  49   0.0000       0.166515         4.5311

MULLIKEN ATOMIC CHARGES
-----------------------
   0 O :   -0.744565
   1 H :    0.335304
   2 H :    0.385256
   3 O :   -0.744726
   4 H :    0.344002
   5 H :    0.370210
   6 O :   -0.749932
   7 H :    0.364843
   8 H :    0.342800
   9 O :   -0.728919
  10 H :    0.350389
  11 H :    0.390082
  12 O :   -0.719708
  13 H :    0.348239
  14 H :    0.384037
  15 O :   -0.699622
  16 H :    0.356942
  17 H :    0.379746
  18 O :   -0.737998
  19 H :    0.362755
  20 H :    0.350893
  21 O :   -0.725610
  22 H :    0.367954
  23 H :    0.385358
  24 O :   -0.701914
  25 H :    0.390202
  26 H :    0.343980
Sum of atomic charges:    0.0000000

LOEWDIN ATOMIC CHARGES
----------------------
   0 O :   -0.343897
   1 H :    0.152909
   2 H :    0.146315
   3 O :   -0.342741
   4 H :    0.157284
   5 H :    0.142473
   6 O :   -0.350246
   7 H :    0.146332
   8 H :    0.136860
   9 O :   -0.281511
  10 H :    0.172349
  11 H :    0.156902
  12 O :   -0.311101
  13 H :    0.165549
  14 H :    0.148163
  15 O :   -0.277352
  16 H :    0.170979
  17 H :    0.155105
  18 O :   -0.359743
  19 H :    0.145286
  20 H :    0.142366
  21 O :   -0.288106
  22 H :    0.170060
  23 H :    0.197280
  24 O :   -0.278054
  25 H :    0.159501
  26 H :    0.167037

  Mayer bond orders larger than 0.100000
B(  0-O ,  1-H ) :   0.8516 B(  0-O ,  2-H ) :   0.7531 B(  3-O ,  4-H ) :   0.8469
B(  3-O ,  5-H ) :   0.7562 B(  5-H , 15-O ) :   0.1025 B(  6-O ,  7-H ) :   0.8234
B(  6-O ,  8-H ) :   0.7721 B(  8-H , 12-O ) :   0.1099 B(  9-O , 10-H ) :   0.8291
B(  9-O , 11-H ) :   0.7822 B( 12-O , 13-H ) :   0.8420 B( 12-O , 14-H ) :   0.7668
B( 15-O , 16-H ) :   0.8369 B( 15-O , 17-H ) :   0.7973 B( 18-O , 19-H ) :   0.8298
B( 18-O , 20-H ) :   0.8129 B( 21-O , 22-H ) :   0.8298 B( 21-O , 23-H ) :   0.8091
B( 24-O , 25-H ) :   0.7914 B( 24-O , 26-H ) :   0.8416

MP2 TOTAL ENERGY:     -686.914049969 Eh
FINAL SINGLE POINT ENERGY      -686.914049968872

DIPOLE MOMENT
-------------
                                X             Y             Z
Electronic contribution:     -0.10964       0.18979      -0.43281
Nuclear contribution   :     -0.30955       0.79086      -2.09298
                        -----------------------------------------
Total Dipole Moment    :     -0.41919       0.98065      -2.52579
                        -----------------------------------------
Magnitude (a.u.)       :      2.74172
Magnitude (Debye)      :      6.96889

Rotational constants in cm-1:     0.027219     0.015675     0.013086
Rotational constants in MHz :   815.994014   469.938367   392.294932

                             ****ORCA TERMINATED NORMALLY****
TOTAL RUN TIME: 0 days 0 hours 4 minutes 30 seconds 565 msec
