                         Program Version 4.2.0 -  RELEASE  -
|  1> # 12h2o.su.etal.mol0,1,4,5,9,11
|  2> ! MP2 def2-TZVP EnGrad TightSCF
|  3>
|  4> %pal
|  5>     nprocs 6
|  6> end
|  7>
|  8> %maxcore 8000
|  9>
| 10> %scf
| 11>     ConvForced true
| 12> end
| 13>
| 14> *xyz 0 1
| 15> O   1.794470000   0.923410000   2.768350000
| 16> H   2.338250000   1.359750000   3.430940000
| 17> H   0.879480000   1.303000000   2.865760000
| 18> O  -1.794470000  -0.923410000   2.768350000
| 19> H  -2.338250000  -1.359750000   3.430940000
| 20> H  -0.879480000  -1.303000000   2.865760000
| 21> O  -0.885520000   1.737840000   0.052730000
| 22> H  -1.032320000   2.090180000  -0.841890000
| 23> H  -1.284090000   0.839590000   0.017130000
| 24> O   0.885520000  -1.737840000   0.052730000
| 25> H   1.284090000  -0.839590000   0.017130000
| 26> H   1.032320000  -2.090180000  -0.841890000
| 27> O   0.741530000  -1.752130000   2.896280000
| 28> H   0.920500000  -2.036450000   1.984040000
| 29> H   1.242140000  -0.921210000   2.984230000
| 30> O  -0.741530000   1.752130000   2.896280000
| 31> H  -0.920500000   2.036450000   1.984040000
| 32> H  -1.242140000   0.921210000   2.984230000
| 33> *
| 34>
| 35>                          ****END OF INPUT****

CARTESIAN COORDINATES (ANGSTROEM)
---------------------------------
  O      1.794470    0.923410    2.768350
  H      2.338250    1.359750    3.430940
  H      0.879480    1.303000    2.865760
  O     -1.794470   -0.923410    2.768350
  H     -2.338250   -1.359750    3.430940
  H     -0.879480   -1.303000    2.865760
  O     -0.885520    1.737840    0.052730
  H     -1.032320    2.090180   -0.841890
  H     -1.284090    0.839590    0.017130
  O      0.885520   -1.737840    0.052730
  H      1.284090   -0.839590    0.017130
  H      1.032320   -2.090180   -0.841890
  O      0.741530   -1.752130    2.896280
  H      0.920500   -2.036450    1.984040
  H      1.242140   -0.921210    2.984230
  O     -0.741530    1.752130    2.896280
  H     -0.920500    2.036450    1.984040
  H     -1.242140    0.921210    2.984230

 Total Charge           Charge          ....    0
 Multiplicity           Mult            ....    1
 Number of Electrons    NEL             ....   60
 Basis Dimension        Dim             ....  258

ORBITAL ENERGIES
----------------

  NO   OCC          E(Eh)            E(eV)
   0   2.0000     -20.587024      -560.2014
   1   2.0000     -20.587024      -560.2014
   2   2.0000     -20.536726      -558.8327
   3   2.0000     -20.536726      -558.8327
   4   2.0000     -20.533750      -558.7517
   5   2.0000     -20.533750      -558.7517
   6   2.0000      -1.366096       -37.1734
   7   2.0000      -1.365369       -37.1536
   8   2.0000      -1.338620       -36.4257
   9   2.0000      -1.328453       -36.1490
  10   2.0000      -1.316966       -35.8365
  11   2.0000      -1.307041       -35.5664
  12   2.0000      -0.729178       -19.8419
  13   2.0000      -0.726813       -19.7776
  14   2.0000      -0.702871       -19.1261
  15   2.0000      -0.701301       -19.0834
  16   2.0000      -0.692319       -18.8390
  17   2.0000      -0.688249       -18.7282
  18   2.0000      -0.617805       -16.8113
  19   2.0000      -0.610035       -16.5999
  20   2.0000      -0.588370       -16.0104
  21   2.0000      -0.569407       -15.4943
  22   2.0000      -0.559219       -15.2171
  23   2.0000      -0.537915       -14.6374
  24   2.0000      -0.529590       -14.4109
  25   2.0000      -0.528148       -14.3717
  26   2.0000      -0.484956       -13.1963
  27   2.0000      -0.483956       -13.1691
  28   2.0000      -0.481196       -13.0940
  29   2.0000      -0.481019       -13.0892
  30   0.0000       0.100457         2.7336
  31   0.0000       0.135362         3.6834
  32   0.0000       0.154513         4.2045
  33   0.0000       0.166005         4.5172
  34   0.0000       0.206442         5.6176

MULLIKEN ATOMIC CHARGES
-----------------------
   0 O :   -0.748754
   1 H :    0.337050
   2 H :    0.383850
   3 O :   -0.748754
   4 H :    0.337050
   5 H :    0.383850
   6 O :   -0.703003
   7 H :    0.347523
   8 H :    0.362490
   9 O :   -0.703003
  10 H :    0.362490
  11 H :    0.347523
  12 O :   -0.725780
  13 H :    0.380354
  14 H :    0.366270
  15 O :   -0.725780
  16 H :    0.380354
  17 H :    0.366270
Sum of atomic charges:   -0.0000000

LOEWDIN ATOMIC CHARGES
----------------------
   0 O :   -0.345103
   1 H :    0.153641
   2 H :    0.145733
   3 O :   -0.345103
   4 H :    0.153641
   5 H :    0.145733
   6 O :   -0.319128
   7 H :    0.169981
   8 H :    0.179778
   9 O :   -0.319128
  10 H :    0.179778
  11 H :    0.169981
  12 O :   -0.289772
  13 H :    0.155697
  14 H :    0.149174
  15 O :   -0.289772
  16 H :    0.155697
  17 H :    0.149174

  Mayer bond orders larger than 0.100000
B(  0-O ,  1-H ) :   0.8507 B(  0-O ,  2-H ) :   0.7399 B(  2-H , 15-O ) :   0.1179
B(  3-O ,  4-H ) :   0.8507 B(  3-O ,  5-H ) :   0.7399 B(  5-H , 12-O ) :   0.1179
B(  6-O ,  7-H ) :   0.8436 B(  6-O ,  8-H ) :   0.8271 B(  9-O , 10-H ) :   0.8271
B(  9-O , 11-H ) :   0.8436 B( 12-O , 13-H ) :   0.8104 B( 12-O , 14-H ) :   0.7916
B( 15-O , 16-H ) :   0.8104 B( 15-O , 17-H ) :   0.7916

MP2 TOTAL ENERGY:     -457.942653686 Eh
FINAL SINGLE POINT ENERGY      -457.942653685876

DIPOLE MOMENT
-------------
                                X             Y             Z
Electronic contribution:     -0.00000      -0.00000      -0.04887
Nuclear contribution   :     -0.00000      -0.00000      -1.65558
                        -----------------------------------------
Total Dipole Moment    :     -0.00000      -0.00000      -1.70445
                        -----------------------------------------
Magnitude (a.u.)       :      1.70445
Magnitude (Debye)      :      4.33238

Rotational constants in cm-1:     0.048535     0.040310     0.036365
Rotational constants in MHz :  1455.030353  1208.463347  1090.180551

                             ****ORCA TERMINATED NORMALLY****
TOTAL RUN TIME: 0 days 0 hours 1 minutes 15 seconds 317 msec
