                         Program Version 4.2.0 -  RELEASE  -
|  1> # 12mecn.remya.etal.2.mol7,10,11
|  2> ! MP2 def2-TZVP EnGrad TightSCF
|  3>
|  4> %pal
|  5>     nprocs 6
|  6> end
|  7>
|  8> %maxcore 8000
|  9>
| 10> %scf
| 11>     ConvForced true
| 12> end
| 13>
| 14> *xyz 0 1
| 15> C   1.502241000   0.651296000   1.710523000
| 16> H   1.309219000   1.637164000   2.143202000
| 17> H   2.493408000   0.297996000   2.009069000
| 18> H   0.746597000  -0.059850000   2.055508000
| 19> C   1.447974000   0.738517000   0.269805000
| 20> N   1.405612000   0.808047000  -0.894380000
| 21> C   4.602033000   0.321019000  -1.784800000
| 22> H   4.827650000  -0.662160000  -2.207910000
| 23> H   5.320558000   1.057980000  -2.148500000
| 24> H   3.601982000   0.643751000  -2.087520000
| 25> C   4.654967000   0.244048000  -0.343060000
| 26> N   4.691648000   0.166590000   0.820757000
| 27> C   4.214163000   3.378139000   1.593627000
| 28> H   3.242643000   3.657109000   2.012358000
| 29> H   4.969258000   4.086643000   1.941290000
| 30> H   4.482966000   2.372549000   1.931698000
| 31> C   4.130759000   3.388436000   0.150192000
| 32> N   4.050180000   3.381449000  -1.013420000
| 33> *
| 34>
| 35>                          ****END OF INPUT****

CARTESIAN COORDINATES (ANGSTROEM)
---------------------------------
  C      1.502241    0.651296    1.710523
  H      1.309219    1.637164    2.143202
  H      2.493408    0.297996    2.009069
  H      0.746597   -0.059850    2.055508
  C      1.447974    0.738517    0.269805
  N      1.405612    0.808047   -0.894380
  C      4.602033    0.321019   -1.784800
  H      4.827650   -0.662160   -2.207910
  H      5.320558    1.057980   -2.148500
  H      3.601982    0.643751   -2.087520
  C      4.654967    0.244048   -0.343060
  N      4.691648    0.166590    0.820757
  C      4.214163    3.378139    1.593627
  H      3.242643    3.657109    2.012358
  H      4.969258    4.086643    1.941290
  H      4.482966    2.372549    1.931698
  C      4.130759    3.388436    0.150192
  N      4.050180    3.381449   -1.013420

 Total Charge           Charge          ....    0
 Multiplicity           Mult            ....    1
 Number of Electrons    NEL             ....   66
 Basis Dimension        Dim             ....  333

ORBITAL ENERGIES
----------------

  NO   OCC          E(Eh)            E(eV)
   0   2.0000     -15.570062      -423.6829
   1   2.0000     -15.569924      -423.6792
   2   2.0000     -15.568762      -423.6476
   3   2.0000     -11.285428      -307.0921
   4   2.0000     -11.279830      -306.9398
   5   2.0000     -11.279669      -306.9354
   6   2.0000     -11.276866      -306.8591
   7   2.0000     -11.276816      -306.8578
   8   2.0000     -11.260641      -306.4176
   9   2.0000      -1.219335       -33.1798
  10   2.0000      -1.213109       -33.0104
  11   2.0000      -1.212354       -32.9898
  12   2.0000      -1.040466       -28.3125
  13   2.0000      -1.037290       -28.2261
  14   2.0000      -1.026873       -27.9426
  15   2.0000      -0.697773       -18.9874
  16   2.0000      -0.693717       -18.8770
  17   2.0000      -0.685404       -18.6508
  18   2.0000      -0.636673       -17.3248
  19   2.0000      -0.632763       -17.2183
  20   2.0000      -0.626948       -17.0601
  21   2.0000      -0.620485       -16.8843
  22   2.0000      -0.612903       -16.6779
  23   2.0000      -0.607660       -16.5353
  24   2.0000      -0.559601       -15.2275
  25   2.0000      -0.554528       -15.0895
  26   2.0000      -0.553897       -15.0723
  27   2.0000      -0.465416       -12.6646
  28   2.0000      -0.460035       -12.5182
  29   2.0000      -0.458682       -12.4814
  30   2.0000      -0.454322       -12.3627
  31   2.0000      -0.453112       -12.3298
  32   2.0000      -0.448575       -12.2064
  33   0.0000       0.113213         3.0807
  34   0.0000       0.149500         4.0681
  35   0.0000       0.155098         4.2204
  36   0.0000       0.158594         4.3156
  37   0.0000       0.166430         4.5288

MULLIKEN ATOMIC CHARGES
-----------------------
   0 C :   -0.289290
   1 H :    0.156654
   2 H :    0.202383
   3 H :    0.176760
   4 C :   -0.116180
   5 N :   -0.129885
   6 C :   -0.267864
   7 H :    0.166783
   8 H :    0.174098
   9 H :    0.210203
  10 C :   -0.084720
  11 N :   -0.199353
  12 C :   -0.293482
  13 H :    0.157959
  14 H :    0.177264
  15 H :    0.200519
  16 C :   -0.126193
  17 N :   -0.115657
Sum of atomic charges:   -0.0000000

LOEWDIN ATOMIC CHARGES
----------------------
   0 C :   -0.286470
   1 H :    0.148303
   2 H :    0.155551
   3 H :    0.152645
   4 C :   -0.213910
   5 N :    0.043886
   6 C :   -0.282842
   7 H :    0.150155
   8 H :    0.154513
   9 H :    0.160917
  10 C :   -0.200922
  11 N :    0.014702
  12 C :   -0.286914
  13 H :    0.148696
  14 H :    0.151058
  15 H :    0.154980
  16 C :   -0.214187
  17 N :    0.049839

  Mayer bond orders larger than 0.100000
B(  0-C ,  1-H ) :   0.9201 B(  0-C ,  2-H ) :   0.9071 B(  0-C ,  3-H ) :   0.9105
B(  0-C ,  4-C ) :   0.8956 B(  4-C ,  5-N ) :   2.7701 B(  6-C ,  7-H ) :   0.9075
B(  6-C ,  8-H ) :   0.9121 B(  6-C ,  9-H ) :   0.8993 B(  6-C , 10-C ) :   0.9108
B( 10-C , 11-N ) :   2.7126 B( 12-C , 13-H ) :   0.9217 B( 12-C , 14-H ) :   0.9098
B( 12-C , 15-H ) :   0.9062 B( 12-C , 16-C ) :   0.8976 B( 16-C , 17-N ) :   2.7876

MP2 TOTAL ENERGY:     -397.466655997 Eh
FINAL SINGLE POINT ENERGY      -397.466655996971

DIPOLE MOMENT
-------------
                                X             Y             Z
Electronic contribution:     -0.17162       0.02578      -3.28082
Nuclear contribution   :      0.26736      -0.03988       4.63168
                        -----------------------------------------
Total Dipole Moment    :      0.09575      -0.01410       1.35086
                        -----------------------------------------
Magnitude (a.u.)       :      1.35432
Magnitude (Debye)      :      3.44241

Rotational constants in cm-1:     0.045991     0.039224     0.031594
Rotational constants in MHz :  1378.789273  1175.910717   947.167425

                             ****ORCA TERMINATED NORMALLY****
TOTAL RUN TIME: 0 days 0 hours 4 minutes 44 seconds 766 msec
