                         Program Version 4.2.0 -  RELEASE  -
|  1> # 12h2o.su.etal.mol0,8,10
|  2> ! MP2 def2-TZVP EnGrad TightSCF
|  3>
|  4> %pal
|  5>     nprocs 6
|  6> end
|  7>
|  8> %maxcore 8000
|  9>
| 10> %scf
| 11>     ConvForced true
| 12> end
| 13>
| 14> *xyz 0 1
| 15> O   1.794470000   0.923410000   2.768350000
| 16> H   2.338250000   1.359750000   3.430940000
| 17> H   0.879480000   1.303000000   2.865760000
| 18> O   1.752130000   0.741530000  -2.896280000
| 19> H   2.036450000   0.920500000  -1.984040000
| 20> H   0.921210000   1.242140000  -2.984230000
| 21> O  -0.923410000   1.794470000  -2.768350000
| 22> H  -1.359750000   2.338250000  -3.430940000
| 23> H  -1.303000000   0.879480000  -2.865760000
| 24> *
| 25>
| 26>                          ****END OF INPUT****

CARTESIAN COORDINATES (ANGSTROEM)
---------------------------------
  O      1.794470    0.923410    2.768350
  H      2.338250    1.359750    3.430940
  H      0.879480    1.303000    2.865760
  O      1.752130    0.741530   -2.896280
  H      2.036450    0.920500   -1.984040
  H      0.921210    1.242140   -2.984230
  O     -0.923410    1.794470   -2.768350
  H     -1.359750    2.338250   -3.430940
  H     -1.303000    0.879480   -2.865760

 Total Charge           Charge          ....    0
 Multiplicity           Mult            ....    1
 Number of Electrons    NEL             ....   30
 Basis Dimension        Dim             ....  129

ORBITAL ENERGIES
----------------

  NO   OCC          E(Eh)            E(eV)
   0   2.0000     -20.589395      -560.2659
   1   2.0000     -20.563413      -559.5589
   2   2.0000     -20.525383      -558.5241
   3   2.0000      -1.367021       -37.1985
   4   2.0000      -1.338725       -36.4286
   5   2.0000      -1.307893       -35.5896
   6   2.0000      -0.734147       -19.9772
   7   2.0000      -0.707140       -19.2423
   8   2.0000      -0.677711       -18.4414
   9   2.0000      -0.605399       -16.4737
  10   2.0000      -0.574617       -15.6361
  11   2.0000      -0.553147       -15.0519
  12   2.0000      -0.523569       -14.2470
  13   2.0000      -0.506560       -13.7842
  14   2.0000      -0.473178       -12.8758
  15   0.0000       0.111504         3.0342
  16   0.0000       0.124462         3.3868
  17   0.0000       0.177825         4.8389
  18   0.0000       0.187922         5.1136
  19   0.0000       0.195589         5.3223

MULLIKEN ATOMIC CHARGES
-----------------------
   0 O :   -0.681658
   1 H :    0.339274
   2 H :    0.342535
   3 O :   -0.707890
   4 H :    0.334247
   5 H :    0.353861
   6 O :   -0.693407
   7 H :    0.352500
   8 H :    0.360537
Sum of atomic charges:   -0.0000000

LOEWDIN ATOMIC CHARGES
----------------------
   0 O :   -0.338758
   1 H :    0.158038
   2 H :    0.180804
   3 O :   -0.349845
   4 H :    0.162509
   5 H :    0.145700
   6 O :   -0.310320
   7 H :    0.163461
   8 H :    0.188411

  Mayer bond orders larger than 0.100000
B(  0-O ,  1-H ) :   0.8529 B(  0-O ,  2-H ) :   0.8459 B(  3-O ,  4-H ) :   0.8553
B(  3-O ,  5-H ) :   0.8217 B(  6-O ,  7-H ) :   0.8417 B(  6-O ,  8-H ) :   0.8308

MP2 TOTAL ENERGY:     -228.945749515 Eh
FINAL SINGLE POINT ENERGY      -228.945749515481

DIPOLE MOMENT
-------------
                                X             Y             Z
Electronic contribution:      0.04893      -0.07856      -0.10389
Nuclear contribution   :     -1.44310       0.93582       0.68611
                        -----------------------------------------
Total Dipole Moment    :     -1.39417       0.85726       0.58221
                        -----------------------------------------
Magnitude (a.u.)       :      1.73712
Magnitude (Debye)      :      4.41541

Rotational constants in cm-1:     0.231836     0.040596     0.034760
Rotational constants in MHz :  6950.272787  1217.032436  1042.076101

                             ****ORCA TERMINATED NORMALLY****
TOTAL RUN TIME: 0 days 0 hours 0 minutes 8 seconds 395 msec
