                         Program Version 4.2.0 -  RELEASE  -
|  1> # 12h2o.su.etal.mol1,5,6,8,9
|  2> ! MP2 def2-TZVP EnGrad TightSCF
|  3>
|  4> %pal
|  5>     nprocs 6
|  6> end
|  7>
|  8> %maxcore 8000
|  9>
| 10> %scf
| 11>     ConvForced true
| 12> end
| 13>
| 14> *xyz 0 1
| 15> O  -1.794470000  -0.923410000   2.768350000
| 16> H  -2.338250000  -1.359750000   3.430940000
| 17> H  -0.879480000  -1.303000000   2.865760000
| 18> O   0.885520000  -1.737840000   0.052730000
| 19> H   1.284090000  -0.839590000   0.017130000
| 20> H   1.032320000  -2.090180000  -0.841890000
| 21> O   1.737840000   0.885520000  -0.052730000
| 22> H   2.090180000   1.032320000   0.841890000
| 23> H   0.839590000   1.284090000  -0.017130000
| 24> O   1.752130000   0.741530000  -2.896280000
| 25> H   2.036450000   0.920500000  -1.984040000
| 26> H   0.921210000   1.242140000  -2.984230000
| 27> O   0.741530000  -1.752130000   2.896280000
| 28> H   0.920500000  -2.036450000   1.984040000
| 29> H   1.242140000  -0.921210000   2.984230000
| 30> *
| 31>
| 32>                          ****END OF INPUT****

CARTESIAN COORDINATES (ANGSTROEM)
---------------------------------
  O     -1.794470   -0.923410    2.768350
  H     -2.338250   -1.359750    3.430940
  H     -0.879480   -1.303000    2.865760
  O      0.885520   -1.737840    0.052730
  H      1.284090   -0.839590    0.017130
  H      1.032320   -2.090180   -0.841890
  O      1.737840    0.885520   -0.052730
  H      2.090180    1.032320    0.841890
  H      0.839590    1.284090   -0.017130
  O      1.752130    0.741530   -2.896280
  H      2.036450    0.920500   -1.984040
  H      0.921210    1.242140   -2.984230
  O      0.741530   -1.752130    2.896280
  H      0.920500   -2.036450    1.984040
  H      1.242140   -0.921210    2.984230

 Total Charge           Charge          ....    0
 Multiplicity           Mult            ....    1
 Number of Electrons    NEL             ....   50
 Basis Dimension        Dim             ....  215

ORBITAL ENERGIES
----------------

  NO   OCC          E(Eh)            E(eV)
   0   2.0000     -20.635304      -561.5152
   1   2.0000     -20.572349      -559.8021
   2   2.0000     -20.561758      -559.5139
   3   2.0000     -20.554546      -559.3176
   4   2.0000     -20.509579      -558.0940
   5   2.0000      -1.418187       -38.5908
   6   2.0000      -1.362465       -37.0746
   7   2.0000      -1.343065       -36.5466
   8   2.0000      -1.336410       -36.3656
   9   2.0000      -1.291786       -35.1513
  10   2.0000      -0.776360       -21.1258
  11   2.0000      -0.727121       -19.7860
  12   2.0000      -0.717763       -19.5313
  13   2.0000      -0.708538       -19.2803
  14   2.0000      -0.680598       -18.5200
  15   2.0000      -0.653576       -17.7847
  16   2.0000      -0.614924       -16.7329
  17   2.0000      -0.591208       -16.0876
  18   2.0000      -0.570475       -15.5234
  19   2.0000      -0.557568       -15.1722
  20   2.0000      -0.541630       -14.7385
  21   2.0000      -0.511692       -13.9239
  22   2.0000      -0.500496       -13.6192
  23   2.0000      -0.498627       -13.5683
  24   2.0000      -0.460126       -12.5207
  25   0.0000       0.070902         1.9293
  26   0.0000       0.124878         3.3981
  27   0.0000       0.154941         4.2162
  28   0.0000       0.170198         4.6313
  29   0.0000       0.176520         4.8034

MULLIKEN ATOMIC CHARGES
-----------------------
   0 O :   -0.738282
   1 H :    0.322814
   2 H :    0.368617
   3 O :   -0.723774
   4 H :    0.350319
   5 H :    0.353452
   6 O :   -0.707542
   7 H :    0.365431
   8 H :    0.375650
   9 O :   -0.689139
  10 H :    0.366005
  11 H :    0.326077
  12 O :   -0.686373
  13 H :    0.391115
  14 H :    0.325630
Sum of atomic charges:   -0.0000000

LOEWDIN ATOMIC CHARGES
----------------------
   0 O :   -0.375841
   1 H :    0.147175
   2 H :    0.142100
   3 O :   -0.336840
   4 H :    0.140825
   5 H :    0.170637
   6 O :   -0.274730
   7 H :    0.175379
   8 H :    0.187887
   9 O :   -0.334443
  10 H :    0.149809
  11 H :    0.161475
  12 O :   -0.275031
  13 H :    0.161046
  14 H :    0.160551

  Mayer bond orders larger than 0.100000
B(  0-O ,  1-H ) :   0.8622 B(  0-O ,  2-H ) :   0.7816 B(  3-O ,  4-H ) :   0.7967
B(  3-O ,  5-H ) :   0.8407 B(  6-O ,  7-H ) :   0.8301 B(  6-O ,  8-H ) :   0.8199
B(  9-O , 10-H ) :   0.8282 B(  9-O , 11-H ) :   0.8589 B( 12-O , 13-H ) :   0.7929
B( 12-O , 14-H ) :   0.8555

MP2 TOTAL ENERGY:     -381.592900526 Eh
FINAL SINGLE POINT ENERGY      -381.592900525694

DIPOLE MOMENT
-------------
                                X             Y             Z
Electronic contribution:      0.30919      -0.10390      -0.24194
Nuclear contribution   :      0.41922       1.24981       0.63259
                        -----------------------------------------
Total Dipole Moment    :      0.72841       1.14591       0.39065
                        -----------------------------------------
Magnitude (a.u.)       :      1.41291
Magnitude (Debye)      :      3.59132

Rotational constants in cm-1:     0.130019     0.027531     0.026713
Rotational constants in MHz :  3897.859556   825.357054   800.831108

                             ****ORCA TERMINATED NORMALLY****
TOTAL RUN TIME: 0 days 0 hours 0 minutes 36 seconds 977 msec
