                         Program Version 4.2.0 -  RELEASE  -
|  1> # 12h2o.su.etal.mol2,3,4,7,11
|  2> ! MP2 def2-TZVP EnGrad TightSCF
|  3>
|  4> %pal
|  5>     nprocs 6
|  6> end
|  7>
|  8> %maxcore 8000
|  9>
| 10> %scf
| 11>     ConvForced true
| 12> end
| 13>
| 14> *xyz 0 1
| 15> O   0.923410000  -1.794470000  -2.768350000
| 16> H   1.359750000  -2.338250000  -3.430940000
| 17> H   1.303000000  -0.879480000  -2.865760000
| 18> O  -1.752130000  -0.741530000  -2.896280000
| 19> H  -2.036450000  -0.920500000  -1.984040000
| 20> H  -0.921210000  -1.242140000  -2.984230000
| 21> O  -0.885520000   1.737840000   0.052730000
| 22> H  -1.032320000   2.090180000  -0.841890000
| 23> H  -1.284090000   0.839590000   0.017130000
| 24> O  -1.737840000  -0.885520000  -0.052730000
| 25> H  -2.090180000  -1.032320000   0.841890000
| 26> H  -0.839590000  -1.284090000  -0.017130000
| 27> O  -0.741530000   1.752130000   2.896280000
| 28> H  -0.920500000   2.036450000   1.984040000
| 29> H  -1.242140000   0.921210000   2.984230000
| 30> *
| 31>
| 32>                          ****END OF INPUT****

CARTESIAN COORDINATES (ANGSTROEM)
---------------------------------
  O      0.923410   -1.794470   -2.768350
  H      1.359750   -2.338250   -3.430940
  H      1.303000   -0.879480   -2.865760
  O     -1.752130   -0.741530   -2.896280
  H     -2.036450   -0.920500   -1.984040
  H     -0.921210   -1.242140   -2.984230
  O     -0.885520    1.737840    0.052730
  H     -1.032320    2.090180   -0.841890
  H     -1.284090    0.839590    0.017130
  O     -1.737840   -0.885520   -0.052730
  H     -2.090180   -1.032320    0.841890
  H     -0.839590   -1.284090   -0.017130
  O     -0.741530    1.752130    2.896280
  H     -0.920500    2.036450    1.984040
  H     -1.242140    0.921210    2.984230

 Total Charge           Charge          ....    0
 Multiplicity           Mult            ....    1
 Number of Electrons    NEL             ....   50
 Basis Dimension        Dim             ....  215

ORBITAL ENERGIES
----------------

  NO   OCC          E(Eh)            E(eV)
   0   2.0000     -20.622452      -561.1655
   1   2.0000     -20.600367      -560.5645
   2   2.0000     -20.553040      -559.2767
   3   2.0000     -20.532297      -558.7122
   4   2.0000     -20.524438      -558.4984
   5   2.0000      -1.405345       -38.2414
   6   2.0000      -1.377991       -37.4971
   7   2.0000      -1.337283       -36.3893
   8   2.0000      -1.313317       -35.7372
   9   2.0000      -1.309683       -35.6383
  10   2.0000      -0.763106       -20.7652
  11   2.0000      -0.745204       -20.2780
  12   2.0000      -0.713382       -19.4121
  13   2.0000      -0.691048       -18.8044
  14   2.0000      -0.682231       -18.5645
  15   2.0000      -0.642481       -17.4828
  16   2.0000      -0.614702       -16.7269
  17   2.0000      -0.595922       -16.2159
  18   2.0000      -0.560831       -15.2610
  19   2.0000      -0.553246       -15.0546
  20   2.0000      -0.540410       -14.7053
  21   2.0000      -0.529637       -14.4122
  22   2.0000      -0.501878       -13.6568
  23   2.0000      -0.478339       -13.0163
  24   2.0000      -0.473929       -12.8963
  25   0.0000       0.081782         2.2254
  26   0.0000       0.107034         2.9125
  27   0.0000       0.156474         4.2579
  28   0.0000       0.165046         4.4911
  29   0.0000       0.186025         5.0620

MULLIKEN ATOMIC CHARGES
-----------------------
   0 O :   -0.702365
   1 H :    0.358231
   2 H :    0.364081
   3 O :   -0.721311
   4 H :    0.361677
   5 H :    0.345393
   6 O :   -0.726451
   7 H :    0.347354
   8 H :    0.350932
   9 O :   -0.705861
  10 H :    0.361691
  11 H :    0.376276
  12 O :   -0.687646
  13 H :    0.376075
  14 H :    0.301923
Sum of atomic charges:    0.0000000

LOEWDIN ATOMIC CHARGES
----------------------
   0 O :   -0.313793
   1 H :    0.166083
   2 H :    0.189610
   3 O :   -0.350989
   4 H :    0.146677
   5 H :    0.142102
   6 O :   -0.340070
   7 H :    0.166976
   8 H :    0.140999
   9 O :   -0.273773
  10 H :    0.173473
  11 H :    0.186730
  12 O :   -0.338372
  13 H :    0.154709
  14 H :    0.149636

  Mayer bond orders larger than 0.100000
B(  0-O ,  1-H ) :   0.8386 B(  0-O ,  2-H ) :   0.8281 B(  3-O ,  4-H ) :   0.8339
B(  3-O ,  5-H ) :   0.8269 B(  6-O ,  7-H ) :   0.8434 B(  6-O ,  8-H ) :   0.7938
B(  9-O , 10-H ) :   0.8315 B(  9-O , 11-H ) :   0.8189 B( 12-O , 13-H ) :   0.8128
B( 12-O , 14-H ) :   0.8721

MP2 TOTAL ENERGY:     -381.592305423 Eh
FINAL SINGLE POINT ENERGY      -381.592305423316

DIPOLE MOMENT
-------------
                                X             Y             Z
Electronic contribution:      0.05444      -0.02022      -0.04714
Nuclear contribution   :      0.56891      -1.61998      -0.63259
                        -----------------------------------------
Total Dipole Moment    :      0.62335      -1.64020      -0.67973
                        -----------------------------------------
Magnitude (a.u.)       :      1.88172
Magnitude (Debye)      :      4.78295

Rotational constants in cm-1:     0.119798     0.027744     0.026598
Rotational constants in MHz :  3591.448581   831.743048   797.384626

                             ****ORCA TERMINATED NORMALLY****
TOTAL RUN TIME: 0 days 0 hours 0 minutes 39 seconds 777 msec
