                         Program Version 4.2.0 -  RELEASE  -
|  1> # 12h2o.su.etal.mol1,2,3,4,5,7
|  2> ! MP2 def2-TZVP EnGrad TightSCF
|  3>
|  4> %pal
|  5>     nprocs 6
|  6> end
|  7>
|  8> %maxcore 8000
|  9>
| 10> %scf
| 11>     ConvForced true
| 12> end
| 13>
| 14> *xyz 0 1
| 15> O  -1.794470000  -0.923410000   2.768350000
| 16> H  -2.338250000  -1.359750000   3.430940000
| 17> H  -0.879480000  -1.303000000   2.865760000
| 18> O   0.923410000  -1.794470000  -2.768350000
| 19> H   1.359750000  -2.338250000  -3.430940000
| 20> H   1.303000000  -0.879480000  -2.865760000
| 21> O  -1.752130000  -0.741530000  -2.896280000
| 22> H  -2.036450000  -0.920500000  -1.984040000
| 23> H  -0.921210000  -1.242140000  -2.984230000
| 24> O  -0.885520000   1.737840000   0.052730000
| 25> H  -1.032320000   2.090180000  -0.841890000
| 26> H  -1.284090000   0.839590000   0.017130000
| 27> O   0.885520000  -1.737840000   0.052730000
| 28> H   1.284090000  -0.839590000   0.017130000
| 29> H   1.032320000  -2.090180000  -0.841890000
| 30> O  -1.737840000  -0.885520000  -0.052730000
| 31> H  -2.090180000  -1.032320000   0.841890000
| 32> H  -0.839590000  -1.284090000  -0.017130000
| 33> *
| 34>
| 35>                          ****END OF INPUT****

CARTESIAN COORDINATES (ANGSTROEM)
---------------------------------
  O     -1.794470   -0.923410    2.768350
  H     -2.338250   -1.359750    3.430940
  H     -0.879480   -1.303000    2.865760
  O      0.923410   -1.794470   -2.768350
  H      1.359750   -2.338250   -3.430940
  H      1.303000   -0.879480   -2.865760
  O     -1.752130   -0.741530   -2.896280
  H     -2.036450   -0.920500   -1.984040
  H     -0.921210   -1.242140   -2.984230
  O     -0.885520    1.737840    0.052730
  H     -1.032320    2.090180   -0.841890
  H     -1.284090    0.839590    0.017130
  O      0.885520   -1.737840    0.052730
  H      1.284090   -0.839590    0.017130
  H      1.032320   -2.090180   -0.841890
  O     -1.737840   -0.885520   -0.052730
  H     -2.090180   -1.032320    0.841890
  H     -0.839590   -1.284090   -0.017130

 Total Charge           Charge          ....    0
 Multiplicity           Mult            ....    1
 Number of Electrons    NEL             ....   60
 Basis Dimension        Dim             ....  258

ORBITAL ENERGIES
----------------

  NO   OCC          E(Eh)            E(eV)
   0   2.0000     -20.622262      -561.1603
   1   2.0000     -20.584347      -560.1285
   2   2.0000     -20.582281      -560.0723
   3   2.0000     -20.541231      -558.9553
   4   2.0000     -20.510687      -558.1242
   5   2.0000     -20.509751      -558.0987
   6   2.0000      -1.402805       -38.1723
   7   2.0000      -1.366982       -37.1975
   8   2.0000      -1.362069       -37.0638
   9   2.0000      -1.331952       -36.2443
  10   2.0000      -1.294987       -35.2384
  11   2.0000      -1.290929       -35.1280
  12   2.0000      -0.768104       -20.9012
  13   2.0000      -0.730424       -19.8758
  14   2.0000      -0.728552       -19.8249
  15   2.0000      -0.706307       -19.2196
  16   2.0000      -0.676110       -18.3979
  17   2.0000      -0.665447       -18.1077
  18   2.0000      -0.643880       -17.5209
  19   2.0000      -0.611643       -16.6437
  20   2.0000      -0.601906       -16.3787
  21   2.0000      -0.584373       -15.9016
  22   2.0000      -0.559056       -15.2127
  23   2.0000      -0.543245       -14.7824
  24   2.0000      -0.530281       -14.4297
  25   2.0000      -0.523791       -14.2531
  26   2.0000      -0.512142       -13.9361
  27   2.0000      -0.483965       -13.1694
  28   2.0000      -0.460208       -12.5229
  29   2.0000      -0.458466       -12.4755
  30   0.0000       0.085734         2.3329
  31   0.0000       0.115947         3.1551
  32   0.0000       0.146114         3.9760
  33   0.0000       0.174112         4.7378
  34   0.0000       0.187508         5.1023

MULLIKEN ATOMIC CHARGES
-----------------------
   0 O :   -0.692147
   1 H :    0.349588
   2 H :    0.359784
   3 O :   -0.715643
   4 H :    0.367985
   5 H :    0.370818
   6 O :   -0.724268
   7 H :    0.371586
   8 H :    0.336824
   9 O :   -0.729203
  10 H :    0.326264
  11 H :    0.364436
  12 O :   -0.703694
  13 H :    0.352331
  14 H :    0.380287
  15 O :   -0.747776
  16 H :    0.378977
  17 H :    0.353852
Sum of atomic charges:    0.0000000

LOEWDIN ATOMIC CHARGES
----------------------
   0 O :   -0.308190
   1 H :    0.162531
   2 H :    0.187405
   3 O :   -0.287163
   4 H :    0.169487
   5 H :    0.192285
   6 O :   -0.354140
   7 H :    0.149604
   8 H :    0.137735
   9 O :   -0.367120
  10 H :    0.156198
  11 H :    0.141052
  12 O :   -0.298387
  13 H :    0.175337
  14 H :    0.153243
  15 O :   -0.301810
  16 H :    0.151855
  17 H :    0.140078

  Mayer bond orders larger than 0.100000
B(  0-O ,  1-H ) :   0.8435 B(  0-O ,  2-H ) :   0.8310 B(  3-O ,  4-H ) :   0.8298
B(  3-O ,  5-H ) :   0.8201 B(  6-O ,  7-H ) :   0.8172 B(  6-O ,  8-H ) :   0.8417
B(  9-O , 10-H ) :   0.8578 B(  9-O , 11-H ) :   0.7891 B( 12-O , 13-H ) :   0.8346
B( 12-O , 14-H ) :   0.8048 B( 15-O , 16-H ) :   0.8025 B( 15-O , 17-H ) :   0.7751

MP2 TOTAL ENERGY:     -457.924592352 Eh
FINAL SINGLE POINT ENERGY      -457.924592352383

DIPOLE MOMENT
-------------
                                X             Y             Z
Electronic contribution:     -0.03914      -0.18838       0.19247
Nuclear contribution   :      1.89749      -1.38977      -0.08817
                        -----------------------------------------
Total Dipole Moment    :      1.85835      -1.57815       0.10429
                        -----------------------------------------
Magnitude (a.u.)       :      2.44027
Magnitude (Debye)      :      6.20267

Rotational constants in cm-1:     0.062640     0.031190     0.026813
Rotational constants in MHz :  1877.889546   935.058774   803.820271

                             ****ORCA TERMINATED NORMALLY****
TOTAL RUN TIME: 0 days 0 hours 1 minutes 10 seconds 976 msec
