                         Program Version 4.2.0 -  RELEASE  -
|  1> # 12h2o.su.etal.mol0,1,2,3,5,6,7,9,11
|  2> ! MP2 def2-TZVP EnGrad TightSCF
|  3>
|  4> %pal
|  5>     nprocs 6
|  6> end
|  7>
|  8> %maxcore 8000
|  9>
| 10> %scf
| 11>     ConvForced true
| 12> end
| 13>
| 14> *xyz 0 1
| 15> O   1.794470000   0.923410000   2.768350000
| 16> H   2.338250000   1.359750000   3.430940000
| 17> H   0.879480000   1.303000000   2.865760000
| 18> O  -1.794470000  -0.923410000   2.768350000
| 19> H  -2.338250000  -1.359750000   3.430940000
| 20> H  -0.879480000  -1.303000000   2.865760000
| 21> O   0.923410000  -1.794470000  -2.768350000
| 22> H   1.359750000  -2.338250000  -3.430940000
| 23> H   1.303000000  -0.879480000  -2.865760000
| 24> O  -1.752130000  -0.741530000  -2.896280000
| 25> H  -2.036450000  -0.920500000  -1.984040000
| 26> H  -0.921210000  -1.242140000  -2.984230000
| 27> O   0.885520000  -1.737840000   0.052730000
| 28> H   1.284090000  -0.839590000   0.017130000
| 29> H   1.032320000  -2.090180000  -0.841890000
| 30> O   1.737840000   0.885520000  -0.052730000
| 31> H   2.090180000   1.032320000   0.841890000
| 32> H   0.839590000   1.284090000  -0.017130000
| 33> O  -1.737840000  -0.885520000  -0.052730000
| 34> H  -2.090180000  -1.032320000   0.841890000
| 35> H  -0.839590000  -1.284090000  -0.017130000
| 36> O   0.741530000  -1.752130000   2.896280000
| 37> H   0.920500000  -2.036450000   1.984040000
| 38> H   1.242140000  -0.921210000   2.984230000
| 39> O  -0.741530000   1.752130000   2.896280000
| 40> H  -0.920500000   2.036450000   1.984040000
| 41> H  -1.242140000   0.921210000   2.984230000
| 42> *
| 43>
| 44>                          ****END OF INPUT****

CARTESIAN COORDINATES (ANGSTROEM)
---------------------------------
  O      1.794470    0.923410    2.768350
  H      2.338250    1.359750    3.430940
  H      0.879480    1.303000    2.865760
  O     -1.794470   -0.923410    2.768350
  H     -2.338250   -1.359750    3.430940
  H     -0.879480   -1.303000    2.865760
  O      0.923410   -1.794470   -2.768350
  H      1.359750   -2.338250   -3.430940
  H      1.303000   -0.879480   -2.865760
  O     -1.752130   -0.741530   -2.896280
  H     -2.036450   -0.920500   -1.984040
  H     -0.921210   -1.242140   -2.984230
  O      0.885520   -1.737840    0.052730
  H      1.284090   -0.839590    0.017130
  H      1.032320   -2.090180   -0.841890
  O      1.737840    0.885520   -0.052730
  H      2.090180    1.032320    0.841890
  H      0.839590    1.284090   -0.017130
  O     -1.737840   -0.885520   -0.052730
  H     -2.090180   -1.032320    0.841890
  H     -0.839590   -1.284090   -0.017130
  O      0.741530   -1.752130    2.896280
  H      0.920500   -2.036450    1.984040
  H      1.242140   -0.921210    2.984230
  O     -0.741530    1.752130    2.896280
  H     -0.920500    2.036450    1.984040
  H     -1.242140    0.921210    2.984230

 Total Charge           Charge          ....    0
 Multiplicity           Mult            ....    1
 Number of Electrons    NEL             ....   90
 Basis Dimension        Dim             ....  387

ORBITAL ENERGIES
----------------

  NO   OCC          E(Eh)            E(eV)
   0   2.0000     -20.607886      -560.7691
   1   2.0000     -20.587455      -560.2131
   2   2.0000     -20.583550      -560.1069
   3   2.0000     -20.583413      -560.1031
   4   2.0000     -20.566499      -559.6429
   5   2.0000     -20.559537      -559.4535
   6   2.0000     -20.557113      -559.3875
   7   2.0000     -20.518348      -558.3326
   8   2.0000     -20.495692      -557.7161
   9   2.0000      -1.388595       -37.7856
  10   2.0000      -1.385274       -37.6952
  11   2.0000      -1.371200       -37.3123
  12   2.0000      -1.362312       -37.0704
  13   2.0000      -1.360497       -37.0210
  14   2.0000      -1.348246       -36.6876
  15   2.0000      -1.338140       -36.4126
  16   2.0000      -1.305027       -35.5116
  17   2.0000      -1.280429       -34.8423
  18   2.0000      -0.753826       -20.5127
  19   2.0000      -0.749503       -20.3950
  20   2.0000      -0.740749       -20.1568
  21   2.0000      -0.729882       -19.8611
  22   2.0000      -0.727038       -19.7837
  23   2.0000      -0.726199       -19.7609
  24   2.0000      -0.711989       -19.3742
  25   2.0000      -0.685733       -18.6597
  26   2.0000      -0.661185       -17.9918
  27   2.0000      -0.648584       -17.6489
  28   2.0000      -0.632652       -17.2153
  29   2.0000      -0.616157       -16.7665
  30   2.0000      -0.609925       -16.5969
  31   2.0000      -0.599768       -16.3205
  32   2.0000      -0.590620       -16.0716
  33   2.0000      -0.574540       -15.6340
  34   2.0000      -0.565537       -15.3890
  35   2.0000      -0.541407       -14.7324
  36   2.0000      -0.530611       -14.4386
  37   2.0000      -0.530175       -14.4268
  38   2.0000      -0.522530       -14.2188
  39   2.0000      -0.517713       -14.0877
  40   2.0000      -0.510091       -13.8803
  41   2.0000      -0.502686       -13.6788
  42   2.0000      -0.498455       -13.5637
  43   2.0000      -0.469860       -12.7855
  44   2.0000      -0.445585       -12.1250
  45   0.0000       0.093138         2.5344
  46   0.0000       0.111208         3.0261
  47   0.0000       0.140031         3.8104
  48   0.0000       0.143337         3.9004
  49   0.0000       0.176397         4.8000

MULLIKEN ATOMIC CHARGES
-----------------------
   0 O :   -0.761200
   1 H :    0.356986
   2 H :    0.382149
   3 O :   -0.758707
   4 H :    0.350684
   5 H :    0.385565
   6 O :   -0.715145
   7 H :    0.363078
   8 H :    0.376825
   9 O :   -0.729042
  10 H :    0.371705
  11 H :    0.335482
  12 O :   -0.752305
  13 H :    0.362418
  14 H :    0.381167
  15 O :   -0.704414
  16 H :    0.384056
  17 H :    0.346547
  18 O :   -0.751399
  19 H :    0.363988
  20 H :    0.345691
  21 O :   -0.724464
  22 H :    0.390260
  23 H :    0.367627
  24 O :   -0.706519
  25 H :    0.352717
  26 H :    0.386253
Sum of atomic charges:    0.0000000

LOEWDIN ATOMIC CHARGES
----------------------
   0 O :   -0.316086
   1 H :    0.162124
   2 H :    0.145604
   3 O :   -0.316018
   4 H :    0.159177
   5 H :    0.146343
   6 O :   -0.286991
   7 H :    0.167387
   8 H :    0.194102
   9 O :   -0.358736
  10 H :    0.150821
  11 H :    0.136973
  12 O :   -0.302837
  13 H :    0.142006
  14 H :    0.152213
  15 O :   -0.298171
  16 H :    0.154066
  17 H :    0.171688
  18 O :   -0.351410
  19 H :    0.145051
  20 H :    0.136379
  21 O :   -0.286612
  22 H :    0.157037
  23 H :    0.148632
  24 O :   -0.278628
  25 H :    0.168929
  26 H :    0.156957

  Mayer bond orders larger than 0.100000
B(  0-O ,  1-H ) :   0.8370 B(  0-O ,  2-H ) :   0.7315 B(  2-H , 24-O ) :   0.1160
B(  3-O ,  4-H ) :   0.8401 B(  3-O ,  5-H ) :   0.7257 B(  5-H , 21-O ) :   0.1230
B(  6-O ,  7-H ) :   0.8329 B(  6-O ,  8-H ) :   0.8161 B(  9-O , 10-H ) :   0.8152
B(  9-O , 11-H ) :   0.8428 B( 12-O , 13-H ) :   0.7648 B( 12-O , 14-H ) :   0.8037
B( 15-O , 16-H ) :   0.7946 B( 15-O , 17-H ) :   0.8372 B( 18-O , 19-H ) :   0.8163
B( 18-O , 20-H ) :   0.7837 B( 21-O , 22-H ) :   0.7974 B( 21-O , 23-H ) :   0.8024
B( 24-O , 25-H ) :   0.8390 B( 24-O , 26-H ) :   0.7785

MP2 TOTAL ENERGY:     -686.928572152 Eh
FINAL SINGLE POINT ENERGY      -686.928572152126

DIPOLE MOMENT
-------------
                                X             Y             Z
Electronic contribution:      0.19723       0.04174       0.10921
Nuclear contribution   :      1.58806       0.19772       0.72077
                        -----------------------------------------
Total Dipole Moment    :      1.78529       0.23946       0.82998
                        -----------------------------------------
Magnitude (a.u.)       :      1.98329
Magnitude (Debye)      :      5.04113

Rotational constants in cm-1:     0.031570     0.015807     0.014082
Rotational constants in MHz :   946.436918   473.871587   422.173819

                             ****ORCA TERMINATED NORMALLY****
TOTAL RUN TIME: 0 days 0 hours 4 minutes 46 seconds 142 msec
