                         Program Version 4.2.0 -  RELEASE  -
|  1> # 12meoh.boyd.etal.mol3,5,8
|  2> ! MP2 def2-TZVP EnGrad TightSCF
|  3>
|  4> %pal
|  5>     nprocs 6
|  6> end
|  7>
|  8> %maxcore 8000
|  9>
| 10> %scf
| 11>     ConvForced true
| 12> end
| 13>
| 14> *xyz 0 1
| 15> O  -3.821405976  -2.118091637   0.596795346
| 16> H  -4.342989117  -1.344303030   0.251966383
| 17> C  -3.443883586  -1.809641231   1.934889393
| 18> H  -2.831494349  -2.637429600   2.305201764
| 19> H  -4.325601146  -1.719364371   2.585074667
| 20> H  -2.858527126  -0.882644791   1.996110694
| 21> O  -0.662721750   1.449094618  -1.383082065
| 22> H   0.064188300   2.119867608  -1.465650660
| 23> C  -0.353319239   0.341218776  -2.229326771
| 24> H  -1.072358530  -0.454743281  -2.019906495
| 25> H   0.657636746  -0.044472139  -2.042736771
| 26> H  -0.434616607   0.624733901  -3.287793021
| 27> O   3.570084754   2.361662577  -0.202416728
| 28> H   3.393280933   1.755669977   0.560634073
| 29> C   4.368082883   1.644741793  -1.143112807
| 30> H   4.552851717   2.311801738  -1.989632421
| 31> H   3.862427494   0.740851663  -1.508095690
| 32> H   5.333949674   1.357289092  -0.706288100
| 33> *
| 34>
| 35>                          ****END OF INPUT****

CARTESIAN COORDINATES (ANGSTROEM)
---------------------------------
  O     -3.821406   -2.118092    0.596795
  H     -4.342989   -1.344303    0.251966
  C     -3.443884   -1.809641    1.934889
  H     -2.831494   -2.637430    2.305202
  H     -4.325601   -1.719364    2.585075
  H     -2.858527   -0.882645    1.996111
  O     -0.662722    1.449095   -1.383082
  H      0.064188    2.119868   -1.465651
  C     -0.353319    0.341219   -2.229327
  H     -1.072359   -0.454743   -2.019906
  H      0.657637   -0.044472   -2.042737
  H     -0.434617    0.624734   -3.287793
  O      3.570085    2.361663   -0.202417
  H      3.393281    1.755670    0.560634
  C      4.368083    1.644742   -1.143113
  H      4.552852    2.311802   -1.989632
  H      3.862427    0.740852   -1.508096
  H      5.333950    1.357289   -0.706288

 Total Charge           Charge          ....    0
 Multiplicity           Mult            ....    1
 Number of Electrons    NEL             ....   54
 Basis Dimension        Dim             ....  258

ORBITAL ENERGIES
----------------

  NO   OCC          E(Eh)            E(eV)
   0   2.0000     -20.564027      -559.5756
   1   2.0000     -20.554070      -559.3047
   2   2.0000     -20.552605      -559.2648
   3   2.0000     -11.277984      -306.8896
   4   2.0000     -11.268665      -306.6360
   5   2.0000     -11.267589      -306.6067
   6   2.0000      -1.353392       -36.8277
   7   2.0000      -1.343003       -36.5450
   8   2.0000      -1.340996       -36.4904
   9   2.0000      -0.926189       -25.2029
  10   2.0000      -0.916621       -24.9425
  11   2.0000      -0.915226       -24.9046
  12   2.0000      -0.688360       -18.7312
  13   2.0000      -0.677324       -18.4309
  14   2.0000      -0.676848       -18.4180
  15   2.0000      -0.623664       -16.9708
  16   2.0000      -0.613543       -16.6953
  17   2.0000      -0.613187       -16.6857
  18   2.0000      -0.596121       -16.2213
  19   2.0000      -0.586703       -15.9650
  20   2.0000      -0.586370       -15.9559
  21   2.0000      -0.508106       -13.8263
  22   2.0000      -0.497029       -13.5249
  23   2.0000      -0.496834       -13.5196
  24   2.0000      -0.456390       -12.4190
  25   2.0000      -0.445795       -12.1307
  26   2.0000      -0.445456       -12.1215
  27   0.0000       0.112763         3.0684
  28   0.0000       0.134836         3.6691
  29   0.0000       0.161085         4.3833
  30   0.0000       0.163868         4.4591
  31   0.0000       0.177820         4.8387

MULLIKEN ATOMIC CHARGES
-----------------------
   0 O :   -0.498360
   1 H :    0.323702
   2 C :   -0.176800
   3 H :    0.125710
   4 H :    0.108450
   5 H :    0.118594
   6 O :   -0.506614
   7 H :    0.327802
   8 C :   -0.173397
   9 H :    0.136563
  10 H :    0.103364
  11 H :    0.109246
  12 O :   -0.500215
  13 H :    0.324855
  14 C :   -0.178598
  15 H :    0.130872
  16 H :    0.109037
  17 H :    0.115787
Sum of atomic charges:    0.0000000

LOEWDIN ATOMIC CHARGES
----------------------
   0 O :   -0.111063
   1 H :    0.191753
   2 C :   -0.381965
   3 H :    0.109270
   4 H :    0.095105
   5 H :    0.097590
   6 O :   -0.114797
   7 H :    0.190397
   8 C :   -0.377750
   9 H :    0.110981
  10 H :    0.093664
  11 H :    0.095474
  12 O :   -0.110874
  13 H :    0.189388
  14 C :   -0.379469
  15 H :    0.110654
  16 H :    0.094356
  17 H :    0.097290

  Mayer bond orders larger than 0.100000
B(  0-O ,  1-H ) :   0.8414 B(  0-O ,  2-C ) :   0.9242 B(  2-C ,  3-H ) :   0.9378
B(  2-C ,  4-H ) :   0.9390 B(  2-C ,  5-H ) :   0.9383 B(  6-O ,  7-H ) :   0.8378
B(  6-O ,  8-C ) :   0.9254 B(  8-C ,  9-H ) :   0.9365 B(  8-C , 10-H ) :   0.9393
B(  8-C , 11-H ) :   0.9397 B( 12-O , 13-H ) :   0.8413 B( 12-O , 14-C ) :   0.9217
B( 14-C , 15-H ) :   0.9379 B( 14-C , 16-H ) :   0.9364 B( 14-C , 17-H ) :   0.9404

MP2 TOTAL ENERGY:     -346.523016002 Eh
FINAL SINGLE POINT ENERGY      -346.523016002432

DIPOLE MOMENT
-------------
                                X             Y             Z
Electronic contribution:     -1.87563       1.82139       0.52653
Nuclear contribution   :      2.53800      -1.91043      -0.48601
                        -----------------------------------------
Total Dipole Moment    :      0.66237      -0.08904       0.04052
                        -----------------------------------------
Magnitude (a.u.)       :      0.66956
Magnitude (Debye)      :      1.70188

Rotational constants in cm-1:     0.094648     0.013148     0.012172
Rotational constants in MHz :  2837.460883   394.165868   364.915500

                             ****ORCA TERMINATED NORMALLY****
TOTAL RUN TIME: 0 days 0 hours 1 minutes 0 seconds 626 msec
