                         Program Version 4.2.0 -  RELEASE  -
|  1> # 12h2o.su.etal.mol1,3,6,7
|  2> ! MP2 def2-TZVP EnGrad TightSCF
|  3>
|  4> %pal
|  5>     nprocs 6
|  6> end
|  7>
|  8> %maxcore 8000
|  9>
| 10> %scf
| 11>     ConvForced true
| 12> end
| 13>
| 14> *xyz 0 1
| 15> O  -1.794470000  -0.923410000   2.768350000
| 16> H  -2.338250000  -1.359750000   3.430940000
| 17> H  -0.879480000  -1.303000000   2.865760000
| 18> O  -1.752130000  -0.741530000  -2.896280000
| 19> H  -2.036450000  -0.920500000  -1.984040000
| 20> H  -0.921210000  -1.242140000  -2.984230000
| 21> O   1.737840000   0.885520000  -0.052730000
| 22> H   2.090180000   1.032320000   0.841890000
| 23> H   0.839590000   1.284090000  -0.017130000
| 24> O  -1.737840000  -0.885520000  -0.052730000
| 25> H  -2.090180000  -1.032320000   0.841890000
| 26> H  -0.839590000  -1.284090000  -0.017130000
| 27> *
| 28>
| 29>                          ****END OF INPUT****

CARTESIAN COORDINATES (ANGSTROEM)
---------------------------------
  O     -1.794470   -0.923410    2.768350
  H     -2.338250   -1.359750    3.430940
  H     -0.879480   -1.303000    2.865760
  O     -1.752130   -0.741530   -2.896280
  H     -2.036450   -0.920500   -1.984040
  H     -0.921210   -1.242140   -2.984230
  O      1.737840    0.885520   -0.052730
  H      2.090180    1.032320    0.841890
  H      0.839590    1.284090   -0.017130
  O     -1.737840   -0.885520   -0.052730
  H     -2.090180   -1.032320    0.841890
  H     -0.839590   -1.284090   -0.017130

 Total Charge           Charge          ....    0
 Multiplicity           Mult            ....    1
 Number of Electrons    NEL             ....   40
 Basis Dimension        Dim             ....  172

ORBITAL ENERGIES
----------------

  NO   OCC          E(Eh)            E(eV)
   0   2.0000     -20.605328      -560.6995
   1   2.0000     -20.566283      -559.6370
   2   2.0000     -20.561245      -559.4999
   3   2.0000     -20.520008      -558.3778
   4   2.0000      -1.383280       -37.6410
   5   2.0000      -1.342642       -36.5351
   6   2.0000      -1.341995       -36.5175
   7   2.0000      -1.301779       -35.4232
   8   2.0000      -0.750180       -20.4134
   9   2.0000      -0.711793       -19.3689
  10   2.0000      -0.703759       -19.1503
  11   2.0000      -0.670149       -18.2357
  12   2.0000      -0.622486       -16.9387
  13   2.0000      -0.587518       -15.9872
  14   2.0000      -0.581596       -15.8260
  15   2.0000      -0.549023       -14.9397
  16   2.0000      -0.533155       -14.5079
  17   2.0000      -0.510401       -13.8887
  18   2.0000      -0.504930       -13.7399
  19   2.0000      -0.466540       -12.6952
  20   0.0000       0.084865         2.3093
  21   0.0000       0.125978         3.4280
  22   0.0000       0.153118         4.1665
  23   0.0000       0.167932         4.5696
  24   0.0000       0.202034         5.4976

MULLIKEN ATOMIC CHARGES
-----------------------
   0 O :   -0.693408
   1 H :    0.356026
   2 H :    0.351405
   3 O :   -0.697030
   4 H :    0.370515
   5 H :    0.317659
   6 O :   -0.683165
   7 H :    0.332634
   8 H :    0.350701
   9 O :   -0.708288
  10 H :    0.374964
  11 H :    0.327985
Sum of atomic charges:   -0.0000000

LOEWDIN ATOMIC CHARGES
----------------------
   0 O :   -0.309831
   1 H :    0.165312
   2 H :    0.184270
   3 O :   -0.342287
   4 H :    0.152032
   5 H :    0.157034
   6 O :   -0.338644
   7 H :    0.162959
   8 H :    0.175866
   9 O :   -0.324669
  10 H :    0.153346
  11 H :    0.164612

  Mayer bond orders larger than 0.100000
B(  0-O ,  1-H ) :   0.8397 B(  0-O ,  2-H ) :   0.8364 B(  3-O ,  4-H ) :   0.8186
B(  3-O ,  5-H ) :   0.8640 B(  6-O ,  7-H ) :   0.8551 B(  6-O ,  8-H ) :   0.8395
B(  9-O , 10-H ) :   0.8079 B(  9-O , 11-H ) :   0.8477

MP2 TOTAL ENERGY:     -305.265710050 Eh
FINAL SINGLE POINT ENERGY      -305.265710049833

DIPOLE MOMENT
-------------
                                X             Y             Z
Electronic contribution:     -0.20394       0.24812      -0.07423
Nuclear contribution   :      0.76395      -1.24480       2.86726
                        -----------------------------------------
Total Dipole Moment    :      0.56001      -0.99668       2.79303
                        -----------------------------------------
Magnitude (a.u.)       :      3.01794
Magnitude (Debye)      :      7.67101

Rotational constants in cm-1:     0.080937     0.057237     0.033846
Rotational constants in MHz :  2426.428248  1715.911114  1014.663785

                             ****ORCA TERMINATED NORMALLY****
TOTAL RUN TIME: 0 days 0 hours 0 minutes 16 seconds 718 msec
