                         Program Version 4.2.0 -  RELEASE  -
|  1> # 12h2o.su.etal.mol0,5,8,10
|  2> ! MP2 def2-TZVP EnGrad TightSCF
|  3>
|  4> %pal
|  5>     nprocs 6
|  6> end
|  7>
|  8> %maxcore 8000
|  9>
| 10> %scf
| 11>     ConvForced true
| 12> end
| 13>
| 14> *xyz 0 1
| 15> O   1.794470000   0.923410000   2.768350000
| 16> H   2.338250000   1.359750000   3.430940000
| 17> H   0.879480000   1.303000000   2.865760000
| 18> O   0.885520000  -1.737840000   0.052730000
| 19> H   1.284090000  -0.839590000   0.017130000
| 20> H   1.032320000  -2.090180000  -0.841890000
| 21> O   1.752130000   0.741530000  -2.896280000
| 22> H   2.036450000   0.920500000  -1.984040000
| 23> H   0.921210000   1.242140000  -2.984230000
| 24> O  -0.923410000   1.794470000  -2.768350000
| 25> H  -1.359750000   2.338250000  -3.430940000
| 26> H  -1.303000000   0.879480000  -2.865760000
| 27> *
| 28>
| 29>                          ****END OF INPUT****

CARTESIAN COORDINATES (ANGSTROEM)
---------------------------------
  O      1.794470    0.923410    2.768350
  H      2.338250    1.359750    3.430940
  H      0.879480    1.303000    2.865760
  O      0.885520   -1.737840    0.052730
  H      1.284090   -0.839590    0.017130
  H      1.032320   -2.090180   -0.841890
  O      1.752130    0.741530   -2.896280
  H      2.036450    0.920500   -1.984040
  H      0.921210    1.242140   -2.984230
  O     -0.923410    1.794470   -2.768350
  H     -1.359750    2.338250   -3.430940
  H     -1.303000    0.879480   -2.865760

 Total Charge           Charge          ....    0
 Multiplicity           Mult            ....    1
 Number of Electrons    NEL             ....   40
 Basis Dimension        Dim             ....  172

ORBITAL ENERGIES
----------------

  NO   OCC          E(Eh)            E(eV)
   0   2.0000     -20.594195      -560.3965
   1   2.0000     -20.564656      -559.5927
   2   2.0000     -20.548253      -559.1464
   3   2.0000     -20.540197      -558.9272
   4   2.0000      -1.371878       -37.3307
   5   2.0000      -1.339900       -36.4605
   6   2.0000      -1.324226       -36.0340
   7   2.0000      -1.322226       -35.9796
   8   2.0000      -0.739065       -20.1110
   9   2.0000      -0.708316       -19.2743
  10   2.0000      -0.691558       -18.8182
  11   2.0000      -0.685988       -18.6667
  12   2.0000      -0.611547       -16.6410
  13   2.0000      -0.576125       -15.6772
  14   2.0000      -0.564974       -15.3737
  15   2.0000      -0.563142       -15.3239
  16   2.0000      -0.531112       -14.4523
  17   2.0000      -0.507776       -13.8173
  18   2.0000      -0.491615       -13.3775
  19   2.0000      -0.487011       -13.2522
  20   0.0000       0.099796         2.7156
  21   0.0000       0.119944         3.2638
  22   0.0000       0.143070         3.8931
  23   0.0000       0.177131         4.8200
  24   0.0000       0.194701         5.2981

MULLIKEN ATOMIC CHARGES
-----------------------
   0 O :   -0.682778
   1 H :    0.339950
   2 H :    0.344872
   3 O :   -0.678016
   4 H :    0.337251
   5 H :    0.336067
   6 O :   -0.702613
   7 H :    0.325721
   8 H :    0.358498
   9 O :   -0.695451
  10 H :    0.354385
  11 H :    0.362114
Sum of atomic charges:   -0.0000000

LOEWDIN ATOMIC CHARGES
----------------------
   0 O :   -0.338504
   1 H :    0.158616
   2 H :    0.181828
   3 O :   -0.337015
   4 H :    0.169098
   5 H :    0.163665
   6 O :   -0.345428
   7 H :    0.157095
   8 H :    0.147731
   9 O :   -0.310529
  10 H :    0.164398
  11 H :    0.189045

  Mayer bond orders larger than 0.100000
B(  0-O ,  1-H ) :   0.8522 B(  0-O ,  2-H ) :   0.8440 B(  3-O ,  4-H ) :   0.8478
B(  3-O ,  5-H ) :   0.8524 B(  6-O ,  7-H ) :   0.8584 B(  6-O ,  8-H ) :   0.8161
B(  9-O , 10-H ) :   0.8406 B(  9-O , 11-H ) :   0.8296

MP2 TOTAL ENERGY:     -305.261290157 Eh
FINAL SINGLE POINT ENERGY      -305.261290157036

DIPOLE MOMENT
-------------
                                X             Y             Z
Electronic contribution:     -0.03273      -0.12818       0.01022
Nuclear contribution   :     -0.98915       1.39022      -0.08817
                        -----------------------------------------
Total Dipole Moment    :     -1.02189       1.26203      -0.07796
                        -----------------------------------------
Magnitude (a.u.)       :      1.62575
Magnitude (Debye)      :      4.13233

Rotational constants in cm-1:     0.096049     0.033938     0.030466
Rotational constants in MHz :  2879.472483  1017.432815   913.341599

                             ****ORCA TERMINATED NORMALLY****
TOTAL RUN TIME: 0 days 0 hours 0 minutes 14 seconds 986 msec
