                         Program Version 4.2.0 -  RELEASE  -
|  1> # 12h2o.su.etal.mol0,3,6,9,10
|  2> ! MP2 def2-TZVP EnGrad TightSCF
|  3>
|  4> %pal
|  5>     nprocs 6
|  6> end
|  7>
|  8> %maxcore 8000
|  9>
| 10> %scf
| 11>     ConvForced true
| 12> end
| 13>
| 14> *xyz 0 1
| 15> O   1.794470000   0.923410000   2.768350000
| 16> H   2.338250000   1.359750000   3.430940000
| 17> H   0.879480000   1.303000000   2.865760000
| 18> O  -1.752130000  -0.741530000  -2.896280000
| 19> H  -2.036450000  -0.920500000  -1.984040000
| 20> H  -0.921210000  -1.242140000  -2.984230000
| 21> O   1.737840000   0.885520000  -0.052730000
| 22> H   2.090180000   1.032320000   0.841890000
| 23> H   0.839590000   1.284090000  -0.017130000
| 24> O   0.741530000  -1.752130000   2.896280000
| 25> H   0.920500000  -2.036450000   1.984040000
| 26> H   1.242140000  -0.921210000   2.984230000
| 27> O  -0.923410000   1.794470000  -2.768350000
| 28> H  -1.359750000   2.338250000  -3.430940000
| 29> H  -1.303000000   0.879480000  -2.865760000
| 30> *
| 31>
| 32>                          ****END OF INPUT****

CARTESIAN COORDINATES (ANGSTROEM)
---------------------------------
  O      1.794470    0.923410    2.768350
  H      2.338250    1.359750    3.430940
  H      0.879480    1.303000    2.865760
  O     -1.752130   -0.741530   -2.896280
  H     -2.036450   -0.920500   -1.984040
  H     -0.921210   -1.242140   -2.984230
  O      1.737840    0.885520   -0.052730
  H      2.090180    1.032320    0.841890
  H      0.839590    1.284090   -0.017130
  O      0.741530   -1.752130    2.896280
  H      0.920500   -2.036450    1.984040
  H      1.242140   -0.921210    2.984230
  O     -0.923410    1.794470   -2.768350
  H     -1.359750    2.338250   -3.430940
  H     -1.303000    0.879480   -2.865760

 Total Charge           Charge          ....    0
 Multiplicity           Mult            ....    1
 Number of Electrons    NEL             ....   50
 Basis Dimension        Dim             ....  215

ORBITAL ENERGIES
----------------

  NO   OCC          E(Eh)            E(eV)
   0   2.0000     -20.615856      -560.9860
   1   2.0000     -20.596683      -560.4642
   2   2.0000     -20.537879      -558.8641
   3   2.0000     -20.535912      -558.8106
   4   2.0000     -20.518297      -558.3312
   5   2.0000      -1.395974       -37.9864
   6   2.0000      -1.381959       -37.6050
   7   2.0000      -1.320382       -35.9294
   8   2.0000      -1.314985       -35.7826
   9   2.0000      -1.300561       -35.3901
  10   2.0000      -0.761676       -20.7263
  11   2.0000      -0.739463       -20.1218
  12   2.0000      -0.692142       -18.8342
  13   2.0000      -0.691413       -18.8143
  14   2.0000      -0.686337       -18.6762
  15   2.0000      -0.630137       -17.1469
  16   2.0000      -0.617007       -16.7896
  17   2.0000      -0.581333       -15.8189
  18   2.0000      -0.557868       -15.1804
  19   2.0000      -0.552652       -15.0384
  20   2.0000      -0.536284       -14.5930
  21   2.0000      -0.514421       -13.9981
  22   2.0000      -0.485772       -13.2185
  23   2.0000      -0.481097       -13.0913
  24   2.0000      -0.468538       -12.7496
  25   0.0000       0.091129         2.4797
  26   0.0000       0.110071         2.9952
  27   0.0000       0.159254         4.3335
  28   0.0000       0.169182         4.6037
  29   0.0000       0.176526         4.8035

MULLIKEN ATOMIC CHARGES
-----------------------
   0 O :   -0.711042
   1 H :    0.364881
   2 H :    0.366905
   3 O :   -0.678726
   4 H :    0.357799
   5 H :    0.364511
   6 O :   -0.694380
   7 H :    0.357844
   8 H :    0.329415
   9 O :   -0.705548
  10 H :    0.333699
  11 H :    0.355271
  12 O :   -0.728925
  13 H :    0.324494
  14 H :    0.363803
Sum of atomic charges:   -0.0000000

LOEWDIN ATOMIC CHARGES
----------------------
   0 O :   -0.286401
   1 H :    0.168104
   2 H :    0.190435
   3 O :   -0.270923
   4 H :    0.174703
   5 H :    0.179186
   6 O :   -0.345314
   7 H :    0.144856
   8 H :    0.166074
   9 O :   -0.347578
  10 H :    0.161959
  11 H :    0.145432
  12 O :   -0.370880
  13 H :    0.148745
  14 H :    0.141602

  Mayer bond orders larger than 0.100000
B(  0-O ,  1-H ) :   0.8313 B(  0-O ,  2-H ) :   0.8231 B(  3-O ,  4-H ) :   0.8375
B(  3-O ,  5-H ) :   0.8329 B(  6-O ,  7-H ) :   0.8288 B(  6-O ,  8-H ) :   0.8519
B(  9-O , 10-H ) :   0.8544 B(  9-O , 11-H ) :   0.8261 B( 12-O , 13-H ) :   0.8607
B( 12-O , 14-H ) :   0.7882

MP2 TOTAL ENERGY:     -381.585328131 Eh
FINAL SINGLE POINT ENERGY      -381.585328131130

DIPOLE MOMENT
-------------
                                X             Y             Z
Electronic contribution:      0.08799      -0.24380      -0.01124
Nuclear contribution   :     -0.42190       0.71342       0.77428
                        -----------------------------------------
Total Dipole Moment    :     -0.33390       0.46963       0.76304
                        -----------------------------------------
Magnitude (a.u.)       :      0.95617
Magnitude (Debye)      :      2.43040

Rotational constants in cm-1:     0.087720     0.022610     0.018837
Rotational constants in MHz :  2629.773548   677.817643   564.715436

                             ****ORCA TERMINATED NORMALLY****
TOTAL RUN TIME: 0 days 0 hours 0 minutes 27 seconds 550 msec
