                         Program Version 4.2.0 -  RELEASE  -
|  1> # 12h2o.su.etal.mol6,7,9,11
|  2> ! MP2 def2-TZVP EnGrad TightSCF
|  3>
|  4> %pal
|  5>     nprocs 6
|  6> end
|  7>
|  8> %maxcore 8000
|  9>
| 10> %scf
| 11>     ConvForced true
| 12> end
| 13>
| 14> *xyz 0 1
| 15> O   1.737840000   0.885520000  -0.052730000
| 16> H   2.090180000   1.032320000   0.841890000
| 17> H   0.839590000   1.284090000  -0.017130000
| 18> O  -1.737840000  -0.885520000  -0.052730000
| 19> H  -2.090180000  -1.032320000   0.841890000
| 20> H  -0.839590000  -1.284090000  -0.017130000
| 21> O   0.741530000  -1.752130000   2.896280000
| 22> H   0.920500000  -2.036450000   1.984040000
| 23> H   1.242140000  -0.921210000   2.984230000
| 24> O  -0.741530000   1.752130000   2.896280000
| 25> H  -0.920500000   2.036450000   1.984040000
| 26> H  -1.242140000   0.921210000   2.984230000
| 27> *
| 28>
| 29>                          ****END OF INPUT****

CARTESIAN COORDINATES (ANGSTROEM)
---------------------------------
  O      1.737840    0.885520   -0.052730
  H      2.090180    1.032320    0.841890
  H      0.839590    1.284090   -0.017130
  O     -1.737840   -0.885520   -0.052730
  H     -2.090180   -1.032320    0.841890
  H     -0.839590   -1.284090   -0.017130
  O      0.741530   -1.752130    2.896280
  H      0.920500   -2.036450    1.984040
  H      1.242140   -0.921210    2.984230
  O     -0.741530    1.752130    2.896280
  H     -0.920500    2.036450    1.984040
  H     -1.242140    0.921210    2.984230

 Total Charge           Charge          ....    0
 Multiplicity           Mult            ....    1
 Number of Electrons    NEL             ....   40
 Basis Dimension        Dim             ....  172

ORBITAL ENERGIES
----------------

  NO   OCC          E(Eh)            E(eV)
   0   2.0000     -20.580635      -560.0275
   1   2.0000     -20.580634      -560.0275
   2   2.0000     -20.579475      -559.9960
   3   2.0000     -20.579475      -559.9960
   4   2.0000      -1.360011       -37.0078
   5   2.0000      -1.359164       -36.9847
   6   2.0000      -1.355361       -36.8812
   7   2.0000      -1.354814       -36.8664
   8   2.0000      -0.723840       -19.6967
   9   2.0000      -0.721065       -19.6212
  10   2.0000      -0.717974       -19.5371
  11   2.0000      -0.715775       -19.4772
  12   2.0000      -0.597868       -16.2688
  13   2.0000      -0.597454       -16.2576
  14   2.0000      -0.594416       -16.1749
  15   2.0000      -0.593397       -16.1472
  16   2.0000      -0.528619       -14.3845
  17   2.0000      -0.523076       -14.2336
  18   2.0000      -0.521288       -14.1850
  19   2.0000      -0.519712       -14.1421
  20   0.0000       0.070300         1.9130
  21   0.0000       0.124022         3.3748
  22   0.0000       0.126604         3.4451
  23   0.0000       0.155834         4.2405
  24   0.0000       0.186325         5.0701

MULLIKEN ATOMIC CHARGES
-----------------------
   0 O :   -0.675246
   1 H :    0.336171
   2 H :    0.338730
   3 O :   -0.675246
   4 H :    0.336171
   5 H :    0.338730
   6 O :   -0.676083
   7 H :    0.333710
   8 H :    0.342718
   9 O :   -0.676083
  10 H :    0.333710
  11 H :    0.342718
Sum of atomic charges:   -0.0000000

LOEWDIN ATOMIC CHARGES
----------------------
   0 O :   -0.332567
   1 H :    0.162888
   2 H :    0.169347
   3 O :   -0.332567
   4 H :    0.162888
   5 H :    0.169347
   6 O :   -0.327473
   7 H :    0.161513
   8 H :    0.166292
   9 O :   -0.327473
  10 H :    0.161513
  11 H :    0.166292

  Mayer bond orders larger than 0.100000
B(  0-O ,  1-H ) :   0.8516 B(  0-O ,  2-H ) :   0.8460 B(  3-O ,  4-H ) :   0.8516
B(  3-O ,  5-H ) :   0.8460 B(  6-O ,  7-H ) :   0.8525 B(  6-O ,  8-H ) :   0.8458
B(  9-O , 10-H ) :   0.8525 B(  9-O , 11-H ) :   0.8458

MP2 TOTAL ENERGY:     -305.258820398 Eh
FINAL SINGLE POINT ENERGY      -305.258820397930

DIPOLE MOMENT
-------------
                                X             Y             Z
Electronic contribution:      0.00000       0.00000      -0.01743
Nuclear contribution   :     -0.00000      -0.00000       0.17634
                        -----------------------------------------
Total Dipole Moment    :      0.00000       0.00000       0.15891
                        -----------------------------------------
Magnitude (a.u.)       :      0.15891
Magnitude (Debye)      :      0.40393

Rotational constants in cm-1:     0.062867     0.061478     0.057527
Rotational constants in MHz :  1884.714042  1843.077310  1724.617823

                             ****ORCA TERMINATED NORMALLY****
TOTAL RUN TIME: 0 days 0 hours 0 minutes 14 seconds 803 msec
