                         Program Version 4.2.0 -  RELEASE  -
|  1> ! MP2 def2-TZVP EnGrad TightSCF FrozenCore
|  2>
|  3> %pal
|  4>     nprocs 12
|  5> end
|  6>
|  7> %maxcore 8000
|  8>
|  9> %scf
| 10>     ConvForced true
| 11> end
| 12>
| 13> *xyz 0 1
| 14> C    -2.903447    -1.120042    -1.995790
| 15> H    -3.872618    -1.279912    -2.474951
| 16> H    -2.143509    -1.741235    -2.475983
| 17> H    -2.610770    -0.070345    -2.093078
| 18> C    -2.984212    -1.453649    -0.576677
| 19> N    -3.041573    -1.709300     0.555798
| 20> C     0.318112    -1.653628     1.364591
| 21> H    -0.705207    -1.859408     1.692503
| 22> H     0.753182    -0.836271     1.948524
| 23> H     0.943273    -2.539752     1.498780
| 24> C     0.306185    -1.272065    -0.044220
| 25> N     0.298915    -0.964016    -1.165986
| 26> C    -1.968852     1.148167     2.129677
| 27> H    -0.917594     1.179135     2.433071
| 28> H    -2.366600     0.137578     2.262554
| 29> H    -2.541287     1.846831     2.745299
| 30> C    -2.072736     1.522912     0.722454
| 31> N    -2.150240     1.823649    -0.397667
| 32> C     0.858237     2.395559    -1.356733
| 33> H     0.457605     1.523402    -1.883056
| 34> H     1.782814     2.729963    -1.836360
| 35> H     0.113326     3.193847    -1.392843
| 36> C     1.119792     2.022232     0.030827
| 37> N     1.336913     1.705747     1.128301
| 38> C     3.721255    -0.024364    -1.012420
| 39> H     2.798803    -0.047460    -1.601863
| 40> H     4.568459    -0.274943    -1.655933
| 41> H     3.863709     0.978999    -0.601578
| 42> C     3.615668    -0.991141     0.077546
| 43> N     3.529758    -1.768126     0.936610
| 44> *
| 45>
| 46>                          ****END OF INPUT****

CARTESIAN COORDINATES (ANGSTROEM)
---------------------------------
  C     -2.903447   -1.120042   -1.995790
  H     -3.872618   -1.279912   -2.474951
  H     -2.143509   -1.741235   -2.475983
  H     -2.610770   -0.070345   -2.093078
  C     -2.984212   -1.453649   -0.576677
  N     -3.041573   -1.709300    0.555798
  C      0.318112   -1.653628    1.364591
  H     -0.705207   -1.859408    1.692503
  H      0.753182   -0.836271    1.948524
  H      0.943273   -2.539752    1.498780
  C      0.306185   -1.272065   -0.044220
  N      0.298915   -0.964016   -1.165986
  C     -1.968852    1.148167    2.129677
  H     -0.917594    1.179135    2.433071
  H     -2.366600    0.137578    2.262554
  H     -2.541287    1.846831    2.745299
  C     -2.072736    1.522912    0.722454
  N     -2.150240    1.823649   -0.397667
  C      0.858237    2.395559   -1.356733
  H      0.457605    1.523402   -1.883056
  H      1.782814    2.729963   -1.836360
  H      0.113326    3.193847   -1.392843
  C      1.119792    2.022232    0.030827
  N      1.336913    1.705747    1.128301
  C      3.721255   -0.024364   -1.012420
  H      2.798803   -0.047460   -1.601863
  H      4.568459   -0.274943   -1.655933
  H      3.863709    0.978999   -0.601578
  C      3.615668   -0.991141    0.077546
  N      3.529758   -1.768126    0.936610

 Total Charge           Charge          ....    0
 Multiplicity           Mult            ....    1
 Number of Electrons    NEL             ....  110
 Basis Dimension        Dim             ....  555

ORBITAL ENERGIES
----------------

  NO   OCC          E(Eh)            E(eV)
   0   2.0000     -15.573854      -423.7861
   1   2.0000     -15.570254      -423.6882
   2   2.0000     -15.567498      -423.6132
   3   2.0000     -15.566736      -423.5924
   4   2.0000     -15.566343      -423.5817
   5   2.0000     -11.287831      -307.1575
   6   2.0000     -11.284795      -307.0749
   7   2.0000     -11.283496      -307.0395
   8   2.0000     -11.282419      -307.0102
   9   2.0000     -11.277706      -306.8820
  10   2.0000     -11.276507      -306.8494
  11   2.0000     -11.274427      -306.7928
  12   2.0000     -11.270614      -306.6890
  13   2.0000     -11.267148      -306.5947
  14   2.0000     -11.259638      -306.3903
  15   2.0000      -1.224929       -33.3320
  16   2.0000      -1.219933       -33.1961
  17   2.0000      -1.218059       -33.1451
  18   2.0000      -1.215231       -33.0681
  19   2.0000      -1.213041       -33.0085
  20   2.0000      -1.035118       -28.1670
  21   2.0000      -1.031714       -28.0744
  22   2.0000      -1.030345       -28.0371
  23   2.0000      -1.026143       -27.9228
  24   2.0000      -1.021050       -27.7842
  25   2.0000      -0.694217       -18.8906
  26   2.0000      -0.691929       -18.8283
  27   2.0000      -0.689564       -18.7640
  28   2.0000      -0.685432       -18.6515
  29   2.0000      -0.680052       -18.5052
  30   2.0000      -0.634392       -17.2627
  31   2.0000      -0.632285       -17.2053
  32   2.0000      -0.629729       -17.1358
  33   2.0000      -0.622973       -16.9520
  34   2.0000      -0.618918       -16.8416
  35   2.0000      -0.616593       -16.7783
  36   2.0000      -0.614629       -16.7249
  37   2.0000      -0.610148       -16.6030
  38   2.0000      -0.605053       -16.4643
  39   2.0000      -0.602184       -16.3863
  40   2.0000      -0.563454       -15.3324
  41   2.0000      -0.558883       -15.2080
  42   2.0000      -0.558259       -15.1910
  43   2.0000      -0.555285       -15.1101
  44   2.0000      -0.552775       -15.0418
  45   2.0000      -0.471305       -12.8249
  46   2.0000      -0.467527       -12.7221
  47   2.0000      -0.466271       -12.6879
  48   2.0000      -0.461560       -12.5597
  49   2.0000      -0.459586       -12.5060
  50   2.0000      -0.457678       -12.4540
  51   2.0000      -0.456235       -12.4148
  52   2.0000      -0.455935       -12.4066
  53   2.0000      -0.453921       -12.3518
  54   2.0000      -0.451988       -12.2992
  55   0.0000       0.119570         3.2537
  56   0.0000       0.139374         3.7926
  57   0.0000       0.149770         4.0754
  58   0.0000       0.156551         4.2600
  59   0.0000       0.160921         4.3789

MULLIKEN ATOMIC CHARGES
-----------------------
   0 C :   -0.274388
   1 H :    0.169159
   2 H :    0.177411
   3 H :    0.193410
   4 C :   -0.095145
   5 N :   -0.170179
   6 C :   -0.292068
   7 H :    0.193221
   8 H :    0.186918
   9 H :    0.194923
  10 C :   -0.071393
  11 N :   -0.212543
  12 C :   -0.297300
  13 H :    0.189516
  14 H :    0.194863
  15 H :    0.174759
  16 C :   -0.085609
  17 N :   -0.172980
  18 C :   -0.283206
  19 H :    0.198537
  20 H :    0.165908
  21 H :    0.185954
  22 C :   -0.117084
  23 N :   -0.154285
  24 C :   -0.303849
  25 H :    0.188640
  26 H :    0.176894
  27 H :    0.172048
  28 C :   -0.113596
  29 N :   -0.118534
Sum of atomic charges:   -0.0000000

LOEWDIN ATOMIC CHARGES
----------------------
   0 C :   -0.283190
   1 H :    0.147686
   2 H :    0.153023
   3 H :    0.155550
   4 C :   -0.200776
   5 N :    0.023913
   6 C :   -0.283969
   7 H :    0.149966
   8 H :    0.154541
   9 H :    0.156212
  10 C :   -0.198104
  11 N :    0.021575
  12 C :   -0.281476
  13 H :    0.152853
  14 H :    0.153522
  15 H :    0.150404
  16 C :   -0.199642
  17 N :    0.033000
  18 C :   -0.289327
  19 H :    0.156276
  20 H :    0.145249
  21 H :    0.154623
  22 C :   -0.211692
  23 N :    0.032552
  24 C :   -0.283476
  25 H :    0.152707
  26 H :    0.148870
  27 H :    0.151222
  28 C :   -0.205543
  29 N :    0.043452

  Mayer bond orders larger than 0.100000
B(  0-C ,  1-H ) :   0.9110 B(  0-C ,  2-H ) :   0.9126 B(  0-C ,  3-H ) :   0.9057
B(  0-C ,  4-C ) :   0.9064 B(  4-C ,  5-N ) :   2.7409 B(  6-C ,  7-H ) :   0.9010
B(  6-C ,  8-H ) :   0.9139 B(  6-C ,  9-H ) :   0.8990 B(  6-C , 10-C ) :   0.8988
B( 10-C , 11-N ) :   2.6741 B( 12-C , 13-H ) :   0.9099 B( 12-C , 14-H ) :   0.9089
B( 12-C , 15-H ) :   0.9075 B( 12-C , 16-C ) :   0.8945 B( 16-C , 17-N ) :   2.7299
B( 18-C , 19-H ) :   0.9083 B( 18-C , 20-H ) :   0.9115 B( 18-C , 21-H ) :   0.9084
B( 18-C , 22-C ) :   0.8972 B( 22-C , 23-N ) :   2.7360 B( 24-C , 25-H ) :   0.9092
B( 24-C , 26-H ) :   0.9095 B( 24-C , 27-H ) :   0.9157 B( 24-C , 28-C ) :   0.9063
B( 28-C , 29-N ) :   2.7973

MP2 TOTAL ENERGY:     -662.459367925 Eh
FINAL SINGLE POINT ENERGY      -662.459367925339

DIPOLE MOMENT
-------------
                                X             Y             Z
Electronic contribution:     -0.15085      -2.02638       2.37837
Nuclear contribution   :      0.12423       2.95399      -3.45081
                        -----------------------------------------
Total Dipole Moment    :     -0.02663       0.92761      -1.07244
                        -----------------------------------------
Magnitude (a.u.)       :      1.41821
Magnitude (Debye)      :      3.60480

Rotational constants in cm-1:     0.021704     0.011835     0.010322
Rotational constants in MHz :   650.673173   354.811269   309.453560

                             ****ORCA TERMINATED NORMALLY****
TOTAL RUN TIME: 0 days 0 hours 31 minutes 37 seconds 990 msec
