                         Program Version 4.2.0 -  RELEASE  -
|  1> # 12meoh.boyd.etal.mol2,4,11
|  2> ! MP2 def2-TZVP EnGrad TightSCF
|  3>
|  4> %pal
|  5>     nprocs 6
|  6> end
|  7>
|  8> %maxcore 8000
|  9>
| 10> %scf
| 11>     ConvForced true
| 12> end
| 13>
| 14> *xyz 0 1
| 15> O  -3.839777402   2.233595098   0.660436763
| 16> H  -2.958345897   1.907036203   0.973588449
| 17> C  -3.600368059   3.168790682  -0.390480452
| 18> H  -4.551709193   3.344148967  -0.901254863
| 19> H  -2.868237594   2.789240199  -1.113617525
| 20> H  -3.243594915   4.128998607   0.009549480
| 21> O  -1.358578914   1.232360421   1.189721000
| 22> H  -1.058250183   1.216459361   0.238591307
| 23> C  -0.389763452   1.957872567   1.943072362
| 24> H  -0.747220771   2.012806578   2.975200343
| 25> H  -0.260410585   2.982763209   1.565366540
| 26> H   0.585220638   1.453754179   1.934070793
| 27> O   3.252955559   0.588596242   1.858934315
| 28> H   3.621209177  -0.251605199   1.476063364
| 29> C   4.040824528   0.944288422   2.989639460
| 30> H   3.670521436   1.902573549   3.363847391
| 31> H   5.103749934   1.055868619   2.734277559
| 32> H   3.948540682   0.200279590   3.792908518
| 33> *
| 34>
| 35>                          ****END OF INPUT****

CARTESIAN COORDINATES (ANGSTROEM)
---------------------------------
  O     -3.839777    2.233595    0.660437
  H     -2.958346    1.907036    0.973588
  C     -3.600368    3.168791   -0.390480
  H     -4.551709    3.344149   -0.901255
  H     -2.868238    2.789240   -1.113618
  H     -3.243595    4.128999    0.009549
  O     -1.358579    1.232360    1.189721
  H     -1.058250    1.216459    0.238591
  C     -0.389763    1.957873    1.943072
  H     -0.747221    2.012807    2.975200
  H     -0.260411    2.982763    1.565367
  H      0.585221    1.453754    1.934071
  O      3.252956    0.588596    1.858934
  H      3.621209   -0.251605    1.476063
  C      4.040825    0.944288    2.989639
  H      3.670521    1.902574    3.363847
  H      5.103750    1.055869    2.734278
  H      3.948541    0.200280    3.792909

 Total Charge           Charge          ....    0
 Multiplicity           Mult            ....    1
 Number of Electrons    NEL             ....   54
 Basis Dimension        Dim             ....  258

ORBITAL ENERGIES
----------------

  NO   OCC          E(Eh)            E(eV)
   0   2.0000     -20.579649      -560.0007
   1   2.0000     -20.569946      -559.7367
   2   2.0000     -20.514797      -558.2360
   3   2.0000     -11.281676      -306.9900
   4   2.0000     -11.277135      -306.8665
   5   2.0000     -11.253158      -306.2140
   6   2.0000      -1.370668       -37.2978
   7   2.0000      -1.359150       -36.9844
   8   2.0000      -1.311087       -35.6765
   9   2.0000      -0.930384       -25.3170
  10   2.0000      -0.929859       -25.3028
  11   2.0000      -0.898529       -24.4502
  12   2.0000      -0.699407       -19.0318
  13   2.0000      -0.693406       -18.8685
  14   2.0000      -0.672345       -18.2954
  15   2.0000      -0.628110       -17.0917
  16   2.0000      -0.622109       -16.9285
  17   2.0000      -0.603004       -16.4086
  18   2.0000      -0.602232       -16.3876
  19   2.0000      -0.593216       -16.1422
  20   2.0000      -0.562131       -15.2964
  21   2.0000      -0.517553       -14.0833
  22   2.0000      -0.510858       -13.9012
  23   2.0000      -0.483430       -13.1548
  24   2.0000      -0.461138       -12.5482
  25   2.0000      -0.452707       -12.3188
  26   2.0000      -0.418399       -11.3852
  27   0.0000       0.118028         3.2117
  28   0.0000       0.127468         3.4686
  29   0.0000       0.159867         4.3502
  30   0.0000       0.173528         4.7219
  31   0.0000       0.184978         5.0335

MULLIKEN ATOMIC CHARGES
-----------------------
   0 O :   -0.521288
   1 H :    0.354462
   2 C :   -0.178218
   3 H :    0.125609
   4 H :    0.081288
   5 H :    0.101478
   6 O :   -0.519960
   7 H :    0.338108
   8 C :   -0.199381
   9 H :    0.136105
  10 H :    0.118208
  11 H :    0.155501
  12 O :   -0.500300
  13 H :    0.323785
  14 C :   -0.173732
  15 H :    0.129400
  16 H :    0.114346
  17 H :    0.114589
Sum of atomic charges:   -0.0000000

LOEWDIN ATOMIC CHARGES
----------------------
   0 O :   -0.120449
   1 H :    0.159247
   2 C :   -0.394827
   3 H :    0.106798
   4 H :    0.085571
   5 H :    0.091719
   6 O :   -0.079378
   7 H :    0.198554
   8 C :   -0.375506
   9 H :    0.113565
  10 H :    0.099430
  11 H :    0.109007
  12 O :   -0.109691
  13 H :    0.191629
  14 C :   -0.380804
  15 H :    0.110190
  16 H :    0.097829
  17 H :    0.097117

  Mayer bond orders larger than 0.100000
B(  0-O ,  1-H ) :   0.7935 B(  0-O ,  2-C ) :   0.9468 B(  2-C ,  3-H ) :   0.9430
B(  2-C ,  4-H ) :   0.9374 B(  2-C ,  5-H ) :   0.9385 B(  6-O ,  7-H ) :   0.8306
B(  6-O ,  8-C ) :   0.8613 B(  8-C ,  9-H ) :   0.9373 B(  8-C , 10-H ) :   0.9369
B(  8-C , 11-H ) :   0.9298 B( 12-O , 13-H ) :   0.8391 B( 12-O , 14-C ) :   0.9140
B( 14-C , 15-H ) :   0.9391 B( 14-C , 16-H ) :   0.9354 B( 14-C , 17-H ) :   0.9385

MP2 TOTAL ENERGY:     -346.530862930 Eh
FINAL SINGLE POINT ENERGY      -346.530862930158

DIPOLE MOMENT
-------------
                                X             Y             Z
Electronic contribution:     -2.39234      -2.59690      -0.71636
Nuclear contribution   :      4.57683       2.49987       0.63666
                        -----------------------------------------
Total Dipole Moment    :      2.18449      -0.09703      -0.07970
                        -----------------------------------------
Magnitude (a.u.)       :      2.18809
Magnitude (Debye)      :      5.56169

Rotational constants in cm-1:     0.310668     0.015852     0.015769
Rotational constants in MHz :  9313.593107   475.243876   472.757429

                             ****ORCA TERMINATED NORMALLY****
TOTAL RUN TIME: 0 days 0 hours 1 minutes 10 seconds 774 msec
