                         Program Version 4.2.0 -  RELEASE  -
|  1> # 12h2o.su.etal.mol0,2,3,4,6,8,11
|  2> ! MP2 def2-TZVP EnGrad TightSCF
|  3>
|  4> %pal
|  5>     nprocs 6
|  6> end
|  7>
|  8> %maxcore 8000
|  9>
| 10> %scf
| 11>     ConvForced true
| 12> end
| 13>
| 14> *xyz 0 1
| 15> O   1.794470000   0.923410000   2.768350000
| 16> H   2.338250000   1.359750000   3.430940000
| 17> H   0.879480000   1.303000000   2.865760000
| 18> O   0.923410000  -1.794470000  -2.768350000
| 19> H   1.359750000  -2.338250000  -3.430940000
| 20> H   1.303000000  -0.879480000  -2.865760000
| 21> O  -1.752130000  -0.741530000  -2.896280000
| 22> H  -2.036450000  -0.920500000  -1.984040000
| 23> H  -0.921210000  -1.242140000  -2.984230000
| 24> O  -0.885520000   1.737840000   0.052730000
| 25> H  -1.032320000   2.090180000  -0.841890000
| 26> H  -1.284090000   0.839590000   0.017130000
| 27> O   1.737840000   0.885520000  -0.052730000
| 28> H   2.090180000   1.032320000   0.841890000
| 29> H   0.839590000   1.284090000  -0.017130000
| 30> O   1.752130000   0.741530000  -2.896280000
| 31> H   2.036450000   0.920500000  -1.984040000
| 32> H   0.921210000   1.242140000  -2.984230000
| 33> O  -0.741530000   1.752130000   2.896280000
| 34> H  -0.920500000   2.036450000   1.984040000
| 35> H  -1.242140000   0.921210000   2.984230000
| 36> *
| 37>
| 38>                          ****END OF INPUT****

CARTESIAN COORDINATES (ANGSTROEM)
---------------------------------
  O      1.794470    0.923410    2.768350
  H      2.338250    1.359750    3.430940
  H      0.879480    1.303000    2.865760
  O      0.923410   -1.794470   -2.768350
  H      1.359750   -2.338250   -3.430940
  H      1.303000   -0.879480   -2.865760
  O     -1.752130   -0.741530   -2.896280
  H     -2.036450   -0.920500   -1.984040
  H     -0.921210   -1.242140   -2.984230
  O     -0.885520    1.737840    0.052730
  H     -1.032320    2.090180   -0.841890
  H     -1.284090    0.839590    0.017130
  O      1.737840    0.885520   -0.052730
  H      2.090180    1.032320    0.841890
  H      0.839590    1.284090   -0.017130
  O      1.752130    0.741530   -2.896280
  H      2.036450    0.920500   -1.984040
  H      0.921210    1.242140   -2.984230
  O     -0.741530    1.752130    2.896280
  H     -0.920500    2.036450    1.984040
  H     -1.242140    0.921210    2.984230

 Total Charge           Charge          ....    0
 Multiplicity           Mult            ....    1
 Number of Electrons    NEL             ....   70
 Basis Dimension        Dim             ....  301

ORBITAL ENERGIES
----------------

  NO   OCC          E(Eh)            E(eV)
   0   2.0000     -20.635143      -561.5108
   1   2.0000     -20.594323      -560.4000
   2   2.0000     -20.566585      -559.6452
   3   2.0000     -20.545129      -559.0614
   4   2.0000     -20.543779      -559.0247
   5   2.0000     -20.534289      -558.7664
   6   2.0000     -20.532215      -558.7100
   7   2.0000      -1.418383       -38.5962
   8   2.0000      -1.382393       -37.6168
   9   2.0000      -1.357170       -36.9305
  10   2.0000      -1.330286       -36.1989
  11   2.0000      -1.329538       -36.1786
  12   2.0000      -1.316014       -35.8106
  13   2.0000      -1.313796       -35.7502
  14   2.0000      -0.777847       -21.1663
  15   2.0000      -0.744448       -20.2575
  16   2.0000      -0.718016       -19.5382
  17   2.0000      -0.712902       -19.3991
  18   2.0000      -0.703908       -19.1543
  19   2.0000      -0.701274       -19.0826
  20   2.0000      -0.691219       -18.8090
  21   2.0000      -0.661869       -18.0104
  22   2.0000      -0.615627       -16.7521
  23   2.0000      -0.610213       -16.6047
  24   2.0000      -0.595138       -16.1945
  25   2.0000      -0.576296       -15.6818
  26   2.0000      -0.567438       -15.4408
  27   2.0000      -0.552999       -15.0479
  28   2.0000      -0.541041       -14.7225
  29   2.0000      -0.525364       -14.2959
  30   2.0000      -0.504628       -13.7316
  31   2.0000      -0.493537       -13.4298
  32   2.0000      -0.491834       -13.3835
  33   2.0000      -0.484419       -13.1817
  34   2.0000      -0.481875       -13.1125
  35   0.0000       0.071144         1.9359
  36   0.0000       0.120323         3.2742
  37   0.0000       0.134972         3.6728
  38   0.0000       0.155831         4.2404
  39   0.0000       0.164438         4.4746

MULLIKEN ATOMIC CHARGES
-----------------------
   0 O :   -0.735076
   1 H :    0.335835
   2 H :    0.369942
   3 O :   -0.740486
   4 H :    0.336379
   5 H :    0.386377
   6 O :   -0.709480
   7 H :    0.312880
   8 H :    0.369406
   9 O :   -0.709764
  10 H :    0.375803
  11 H :    0.362741
  12 O :   -0.740943
  13 H :    0.377563
  14 H :    0.332705
  15 O :   -0.699059
  16 H :    0.394297
  17 H :    0.334046
  18 O :   -0.688865
  19 H :    0.385595
  20 H :    0.350103
Sum of atomic charges:   -0.0000000

LOEWDIN ATOMIC CHARGES
----------------------
   0 O :   -0.339789
   1 H :    0.153441
   2 H :    0.143561
   3 O :   -0.339940
   4 H :    0.153614
   5 H :    0.146618
   6 O :   -0.348869
   7 H :    0.150545
   8 H :    0.150517
   9 O :   -0.275823
  10 H :    0.179652
  11 H :    0.180984
  12 O :   -0.346239
  13 H :    0.152914
  14 H :    0.133799
  15 O :   -0.277162
  16 H :    0.160892
  17 H :    0.162372
  18 O :   -0.271646
  19 H :    0.158148
  20 H :    0.172410

  Mayer bond orders larger than 0.100000
B(  0-O ,  1-H ) :   0.8511 B(  0-O ,  2-H ) :   0.7668 B(  3-O ,  4-H ) :   0.8509
B(  3-O ,  5-H ) :   0.7539 B(  6-O ,  7-H ) :   0.8657 B(  6-O ,  8-H ) :   0.7918
B(  9-O , 10-H ) :   0.8235 B(  9-O , 11-H ) :   0.8240 B( 12-O , 13-H ) :   0.8007
B( 12-O , 14-H ) :   0.8100 B( 15-O , 16-H ) :   0.7844 B( 15-O , 17-H ) :   0.8484
B( 18-O , 19-H ) :   0.8070 B( 18-O , 20-H ) :   0.8418

MP2 TOTAL ENERGY:     -534.251633324 Eh
FINAL SINGLE POINT ENERGY      -534.251633324383

DIPOLE MOMENT
-------------
                                X             Y             Z
Electronic contribution:      0.05881       0.26782       0.15797
Nuclear contribution   :     -1.10383       0.53271       0.68611
                        -----------------------------------------
Total Dipole Moment    :     -1.04502       0.80053       0.84408
                        -----------------------------------------
Magnitude (a.u.)       :      1.56377
Magnitude (Debye)      :      3.97480

Rotational constants in cm-1:     0.051384     0.018820     0.015980
Rotational constants in MHz :  1540.454351   564.195368   479.083109

                             ****ORCA TERMINATED NORMALLY****
TOTAL RUN TIME: 0 days 0 hours 1 minutes 51 seconds 989 msec
