                         Program Version 4.2.0 -  RELEASE  -
|  1> # 12h2o.su.etal.mol1,2,4,5,7,9,10
|  2> ! MP2 def2-TZVP EnGrad TightSCF
|  3>
|  4> %pal
|  5>     nprocs 6
|  6> end
|  7>
|  8> %maxcore 8000
|  9>
| 10> %scf
| 11>     ConvForced true
| 12> end
| 13>
| 14> *xyz 0 1
| 15> O  -1.794470000  -0.923410000   2.768350000
| 16> H  -2.338250000  -1.359750000   3.430940000
| 17> H  -0.879480000  -1.303000000   2.865760000
| 18> O   0.923410000  -1.794470000  -2.768350000
| 19> H   1.359750000  -2.338250000  -3.430940000
| 20> H   1.303000000  -0.879480000  -2.865760000
| 21> O  -0.885520000   1.737840000   0.052730000
| 22> H  -1.032320000   2.090180000  -0.841890000
| 23> H  -1.284090000   0.839590000   0.017130000
| 24> O   0.885520000  -1.737840000   0.052730000
| 25> H   1.284090000  -0.839590000   0.017130000
| 26> H   1.032320000  -2.090180000  -0.841890000
| 27> O  -1.737840000  -0.885520000  -0.052730000
| 28> H  -2.090180000  -1.032320000   0.841890000
| 29> H  -0.839590000  -1.284090000  -0.017130000
| 30> O   0.741530000  -1.752130000   2.896280000
| 31> H   0.920500000  -2.036450000   1.984040000
| 32> H   1.242140000  -0.921210000   2.984230000
| 33> O  -0.923410000   1.794470000  -2.768350000
| 34> H  -1.359750000   2.338250000  -3.430940000
| 35> H  -1.303000000   0.879480000  -2.865760000
| 36> *
| 37>
| 38>                          ****END OF INPUT****

CARTESIAN COORDINATES (ANGSTROEM)
---------------------------------
  O     -1.794470   -0.923410    2.768350
  H     -2.338250   -1.359750    3.430940
  H     -0.879480   -1.303000    2.865760
  O      0.923410   -1.794470   -2.768350
  H      1.359750   -2.338250   -3.430940
  H      1.303000   -0.879480   -2.865760
  O     -0.885520    1.737840    0.052730
  H     -1.032320    2.090180   -0.841890
  H     -1.284090    0.839590    0.017130
  O      0.885520   -1.737840    0.052730
  H      1.284090   -0.839590    0.017130
  H      1.032320   -2.090180   -0.841890
  O     -1.737840   -0.885520   -0.052730
  H     -2.090180   -1.032320    0.841890
  H     -0.839590   -1.284090   -0.017130
  O      0.741530   -1.752130    2.896280
  H      0.920500   -2.036450    1.984040
  H      1.242140   -0.921210    2.984230
  O     -0.923410    1.794470   -2.768350
  H     -1.359750    2.338250   -3.430940
  H     -1.303000    0.879480   -2.865760

 Total Charge           Charge          ....    0
 Multiplicity           Mult            ....    1
 Number of Electrons    NEL             ....   70
 Basis Dimension        Dim             ....  301

ORBITAL ENERGIES
----------------

  NO   OCC          E(Eh)            E(eV)
   0   2.0000     -20.608353      -560.7818
   1   2.0000     -20.592682      -560.3554
   2   2.0000     -20.577573      -559.9442
   3   2.0000     -20.573187      -559.8249
   4   2.0000     -20.526372      -558.5510
   5   2.0000     -20.514573      -558.2299
   6   2.0000     -20.480318      -557.2978
   7   2.0000      -1.388965       -37.7957
   8   2.0000      -1.376981       -37.4696
   9   2.0000      -1.360584       -37.0234
  10   2.0000      -1.355463       -36.8840
  11   2.0000      -1.313546       -35.7434
  12   2.0000      -1.301007       -35.4022
  13   2.0000      -1.264013       -34.3956
  14   2.0000      -0.754323       -20.5262
  15   2.0000      -0.742778       -20.2120
  16   2.0000      -0.722138       -19.6504
  17   2.0000      -0.721019       -19.6199
  18   2.0000      -0.695318       -18.9206
  19   2.0000      -0.680959       -18.5298
  20   2.0000      -0.647651       -17.6235
  21   2.0000      -0.638904       -17.3855
  22   2.0000      -0.617299       -16.7976
  23   2.0000      -0.593015       -16.1367
  24   2.0000      -0.590301       -16.0629
  25   2.0000      -0.576363       -15.6836
  26   2.0000      -0.551838       -15.0163
  27   2.0000      -0.544756       -14.8236
  28   2.0000      -0.536343       -14.5946
  29   2.0000      -0.517916       -14.0932
  30   2.0000      -0.505890       -13.7660
  31   2.0000      -0.498144       -13.5552
  32   2.0000      -0.474216       -12.9041
  33   2.0000      -0.456550       -12.4234
  34   2.0000      -0.431587       -11.7441
  35   0.0000       0.086288         2.3480
  36   0.0000       0.127151         3.4600
  37   0.0000       0.130447         3.5496
  38   0.0000       0.163734         4.4554
  39   0.0000       0.176768         4.8101

MULLIKEN ATOMIC CHARGES
-----------------------
   0 O :   -0.729613
   1 H :    0.330375
   2 H :    0.369836
   3 O :   -0.700572
   4 H :    0.357462
   5 H :    0.362899
   6 O :   -0.746851
   7 H :    0.350234
   8 H :    0.349554
   9 O :   -0.732153
  10 H :    0.355354
  11 H :    0.390515
  12 O :   -0.735406
  13 H :    0.375684
  14 H :    0.354133
  15 O :   -0.695105
  16 H :    0.385705
  17 H :    0.352136
  18 O :   -0.702646
  19 H :    0.345733
  20 H :    0.362727
Sum of atomic charges:    0.0000000

LOEWDIN ATOMIC CHARGES
----------------------
   0 O :   -0.337822
   1 H :    0.150948
   2 H :    0.144151
   3 O :   -0.309455
   4 H :    0.166354
   5 H :    0.188440
   6 O :   -0.377721
   7 H :    0.139655
   8 H :    0.135749
   9 O :   -0.285588
  10 H :    0.176492
  11 H :    0.158675
  12 O :   -0.322723
  13 H :    0.149675
  14 H :    0.136881
  15 O :   -0.275917
  16 H :    0.157287
  17 H :    0.173105
  18 O :   -0.315158
  19 H :    0.160262
  20 H :    0.186711

  Mayer bond orders larger than 0.100000
B(  0-O ,  1-H ) :   0.8540 B(  0-O ,  2-H ) :   0.7652 B(  3-O ,  4-H ) :   0.8388
B(  3-O ,  5-H ) :   0.8268 B(  6-O ,  7-H ) :   0.8362 B(  6-O ,  8-H ) :   0.7917
B(  9-O , 10-H ) :   0.8273 B(  9-O , 11-H ) :   0.7902 B( 12-O , 13-H ) :   0.8004
B( 12-O , 14-H ) :   0.8033 B( 15-O , 16-H ) :   0.8026 B( 15-O , 17-H ) :   0.8406
B( 18-O , 19-H ) :   0.8448 B( 18-O , 20-H ) :   0.8265

MP2 TOTAL ENERGY:     -534.247520473 Eh
FINAL SINGLE POINT ENERGY      -534.247520472610

DIPOLE MOMENT
-------------
                                X             Y             Z
Electronic contribution:      0.20057      -0.30991       0.01544
Nuclear contribution   :      1.32903      -0.67812      -2.09298
                        -----------------------------------------
Total Dipole Moment    :      1.52960      -0.98804      -2.07754
                        -----------------------------------------
Magnitude (a.u.)       :      2.76262
Magnitude (Debye)      :      7.02202

Rotational constants in cm-1:     0.043092     0.023916     0.017783
Rotational constants in MHz :  1291.865036   716.977329   533.122799

                             ****ORCA TERMINATED NORMALLY****
TOTAL RUN TIME: 0 days 0 hours 2 minutes 0 seconds 891 msec
