                         Program Version 4.2.0 -  RELEASE  -
|  1> # 12h2o.su.etal.mol0,3,4,6,10,11
|  2> ! MP2 def2-TZVP EnGrad TightSCF
|  3>
|  4> %pal
|  5>     nprocs 6
|  6> end
|  7>
|  8> %maxcore 8000
|  9>
| 10> %scf
| 11>     ConvForced true
| 12> end
| 13>
| 14> *xyz 0 1
| 15> O   1.794470000   0.923410000   2.768350000
| 16> H   2.338250000   1.359750000   3.430940000
| 17> H   0.879480000   1.303000000   2.865760000
| 18> O  -1.752130000  -0.741530000  -2.896280000
| 19> H  -2.036450000  -0.920500000  -1.984040000
| 20> H  -0.921210000  -1.242140000  -2.984230000
| 21> O  -0.885520000   1.737840000   0.052730000
| 22> H  -1.032320000   2.090180000  -0.841890000
| 23> H  -1.284090000   0.839590000   0.017130000
| 24> O   1.737840000   0.885520000  -0.052730000
| 25> H   2.090180000   1.032320000   0.841890000
| 26> H   0.839590000   1.284090000  -0.017130000
| 27> O  -0.923410000   1.794470000  -2.768350000
| 28> H  -1.359750000   2.338250000  -3.430940000
| 29> H  -1.303000000   0.879480000  -2.865760000
| 30> O  -0.741530000   1.752130000   2.896280000
| 31> H  -0.920500000   2.036450000   1.984040000
| 32> H  -1.242140000   0.921210000   2.984230000
| 33> *
| 34>
| 35>                          ****END OF INPUT****

CARTESIAN COORDINATES (ANGSTROEM)
---------------------------------
  O      1.794470    0.923410    2.768350
  H      2.338250    1.359750    3.430940
  H      0.879480    1.303000    2.865760
  O     -1.752130   -0.741530   -2.896280
  H     -2.036450   -0.920500   -1.984040
  H     -0.921210   -1.242140   -2.984230
  O     -0.885520    1.737840    0.052730
  H     -1.032320    2.090180   -0.841890
  H     -1.284090    0.839590    0.017130
  O      1.737840    0.885520   -0.052730
  H      2.090180    1.032320    0.841890
  H      0.839590    1.284090   -0.017130
  O     -0.923410    1.794470   -2.768350
  H     -1.359750    2.338250   -3.430940
  H     -1.303000    0.879480   -2.865760
  O     -0.741530    1.752130    2.896280
  H     -0.920500    2.036450    1.984040
  H     -1.242140    0.921210    2.984230

 Total Charge           Charge          ....    0
 Multiplicity           Mult            ....    1
 Number of Electrons    NEL             ....   60
 Basis Dimension        Dim             ....  258

ORBITAL ENERGIES
----------------

  NO   OCC          E(Eh)            E(eV)
   0   2.0000     -20.619506      -561.0853
   1   2.0000     -20.589732      -560.2751
   2   2.0000     -20.577788      -559.9501
   3   2.0000     -20.558409      -559.4227
   4   2.0000     -20.526264      -558.5480
   5   2.0000     -20.484121      -557.4013
   6   2.0000      -1.404973       -38.2313
   7   2.0000      -1.378766       -37.5181
   8   2.0000      -1.364458       -37.1288
   9   2.0000      -1.340806       -36.4852
  10   2.0000      -1.310925       -35.6721
  11   2.0000      -1.268532       -34.5185
  12   2.0000      -0.762063       -20.7368
  13   2.0000      -0.742711       -20.2102
  14   2.0000      -0.728086       -19.8122
  15   2.0000      -0.723898       -19.6983
  16   2.0000      -0.696057       -18.9407
  17   2.0000      -0.656430       -17.8624
  18   2.0000      -0.645210       -17.5571
  19   2.0000      -0.628426       -17.1003
  20   2.0000      -0.598886       -16.2965
  21   2.0000      -0.583843       -15.8872
  22   2.0000      -0.566992       -15.4286
  23   2.0000      -0.546346       -14.8668
  24   2.0000      -0.538469       -14.6525
  25   2.0000      -0.509370       -13.8607
  26   2.0000      -0.507556       -13.8113
  27   2.0000      -0.500290       -13.6136
  28   2.0000      -0.470325       -12.7982
  29   2.0000      -0.435274       -11.8444
  30   0.0000       0.074253         2.0205
  31   0.0000       0.123539         3.3617
  32   0.0000       0.148400         4.0382
  33   0.0000       0.157559         4.2874
  34   0.0000       0.174969         4.7611

MULLIKEN ATOMIC CHARGES
-----------------------
   0 O :   -0.733573
   1 H :    0.330052
   2 H :    0.367250
   3 O :   -0.675427
   4 H :    0.349505
   5 H :    0.376563
   6 O :   -0.716748
   7 H :    0.394766
   8 H :    0.324867
   9 O :   -0.740865
  10 H :    0.360789
  11 H :    0.340803
  12 O :   -0.728937
  13 H :    0.341259
  14 H :    0.369471
  15 O :   -0.691270
  16 H :    0.388646
  17 H :    0.342852
Sum of atomic charges:    0.0000000

LOEWDIN ATOMIC CHARGES
----------------------
   0 O :   -0.341484
   1 H :    0.150226
   2 H :    0.143114
   3 O :   -0.266006
   4 H :    0.169717
   5 H :    0.185037
   6 O :   -0.284374
   7 H :    0.159840
   8 H :    0.163541
   9 O :   -0.374879
  10 H :    0.144119
  11 H :    0.132991
  12 O :   -0.333939
  13 H :    0.156604
  14 H :    0.143634
  15 O :   -0.275096
  16 H :    0.158189
  17 H :    0.168767

  Mayer bond orders larger than 0.100000
B(  0-O ,  1-H ) :   0.8540 B(  0-O ,  2-H ) :   0.7682 B(  3-O ,  4-H ) :   0.8423
B(  3-O ,  5-H ) :   0.8250 B(  6-O ,  7-H ) :   0.7768 B(  6-O ,  8-H ) :   0.8479
B(  9-O , 10-H ) :   0.8202 B(  9-O , 11-H ) :   0.8231 B( 12-O , 13-H ) :   0.8484
B( 12-O , 14-H ) :   0.7704 B( 15-O , 16-H ) :   0.7987 B( 15-O , 17-H ) :   0.8461

MP2 TOTAL ENERGY:     -457.921862057 Eh
FINAL SINGLE POINT ENERGY      -457.921862057225

DIPOLE MOMENT
-------------
                                X             Y             Z
Electronic contribution:     -0.20865      -0.01178      -0.33858
Nuclear contribution   :     -2.00715      -0.65091       0.00000
                        -----------------------------------------
Total Dipole Moment    :     -2.21580      -0.66268      -0.33858
                        -----------------------------------------
Magnitude (a.u.)       :      2.33742
Magnitude (Debye)      :      5.94126

Rotational constants in cm-1:     0.082139     0.022666     0.020910
Rotational constants in MHz :  2462.454596   679.503396   626.854742

                             ****ORCA TERMINATED NORMALLY****
TOTAL RUN TIME: 0 days 0 hours 1 minutes 7 seconds 31 msec
