                         Program Version 4.2.0 -  RELEASE  -
|  1> # 12h2o.su.etal.mol1,9,11
|  2> ! MP2 def2-TZVP EnGrad TightSCF
|  3>
|  4> %pal
|  5>     nprocs 6
|  6> end
|  7>
|  8> %maxcore 8000
|  9>
| 10> %scf
| 11>     ConvForced true
| 12> end
| 13>
| 14> *xyz 0 1
| 15> O  -1.794470000  -0.923410000   2.768350000
| 16> H  -2.338250000  -1.359750000   3.430940000
| 17> H  -0.879480000  -1.303000000   2.865760000
| 18> O   0.741530000  -1.752130000   2.896280000
| 19> H   0.920500000  -2.036450000   1.984040000
| 20> H   1.242140000  -0.921210000   2.984230000
| 21> O  -0.741530000   1.752130000   2.896280000
| 22> H  -0.920500000   2.036450000   1.984040000
| 23> H  -1.242140000   0.921210000   2.984230000
| 24> *
| 25>
| 26>                          ****END OF INPUT****

CARTESIAN COORDINATES (ANGSTROEM)
---------------------------------
  O     -1.794470   -0.923410    2.768350
  H     -2.338250   -1.359750    3.430940
  H     -0.879480   -1.303000    2.865760
  O      0.741530   -1.752130    2.896280
  H      0.920500   -2.036450    1.984040
  H      1.242140   -0.921210    2.984230
  O     -0.741530    1.752130    2.896280
  H     -0.920500    2.036450    1.984040
  H     -1.242140    0.921210    2.984230

 Total Charge           Charge          ....    0
 Multiplicity           Mult            ....    1
 Number of Electrons    NEL             ....   30
 Basis Dimension        Dim             ....  129

ORBITAL ENERGIES
----------------

  NO   OCC          E(Eh)            E(eV)
   0   2.0000     -20.603242      -560.6427
   1   2.0000     -20.546778      -559.1063
   2   2.0000     -20.529540      -558.6372
   3   2.0000      -1.388957       -37.7954
   4   2.0000      -1.331736       -36.2384
   5   2.0000      -1.310955       -35.6729
   6   2.0000      -0.745620       -20.2893
   7   2.0000      -0.716702       -19.5024
   8   2.0000      -0.680267       -18.5110
   9   2.0000      -0.627598       -17.0778
  10   2.0000      -0.582864       -15.8605
  11   2.0000      -0.552349       -15.0302
  12   2.0000      -0.529715       -14.4143
  13   2.0000      -0.495066       -13.4714
  14   2.0000      -0.477331       -12.9888
  15   0.0000       0.106773         2.9054
  16   0.0000       0.157513         4.2861
  17   0.0000       0.172041         4.6815
  18   0.0000       0.192900         5.2491
  19   0.0000       0.300112         8.1665

MULLIKEN ATOMIC CHARGES
-----------------------
   0 O :   -0.736300
   1 H :    0.340220
   2 H :    0.376877
   3 O :   -0.684737
   4 H :    0.359810
   5 H :    0.369702
   6 O :   -0.715425
   7 H :    0.328428
   8 H :    0.361425
Sum of atomic charges:    0.0000000

LOEWDIN ATOMIC CHARGES
----------------------
   0 O :   -0.339111
   1 H :    0.155263
   2 H :    0.144686
   3 O :   -0.269819
   4 H :    0.175634
   5 H :    0.179890
   6 O :   -0.352860
   7 H :    0.159524
   8 H :    0.146794

  Mayer bond orders larger than 0.100000
B(  0-O ,  1-H ) :   0.8491 B(  0-O ,  2-H ) :   0.7676 B(  3-O ,  4-H ) :   0.8364
B(  3-O ,  5-H ) :   0.8261 B(  6-O ,  7-H ) :   0.8584 B(  6-O ,  8-H ) :   0.8060

MP2 TOTAL ENERGY:     -228.959331134 Eh
FINAL SINGLE POINT ENERGY      -228.959331133529

DIPOLE MOMENT
-------------
                                X             Y             Z
Electronic contribution:      0.18667      -0.18072       0.13064
Nuclear contribution   :      0.30898      -0.67915      -0.73962
                        -----------------------------------------
Total Dipole Moment    :      0.49565      -0.85987      -0.60898
                        -----------------------------------------
Magnitude (a.u.)       :      1.16443
Magnitude (Debye)      :      2.95975

Rotational constants in cm-1:     0.319509     0.127175     0.093023
Rotational constants in MHz :  9578.634585  3812.610070  2788.764738

                             ****ORCA TERMINATED NORMALLY****
TOTAL RUN TIME: 0 days 0 hours 0 minutes 20 seconds 77 msec
