                         Program Version 4.2.0 -  RELEASE  -
|  1> # 12mecn.remya.etal.2.mol2,5
|  2> ! MP2 def2-TZVP EnGrad TightSCF
|  3>
|  4> %pal
|  5>     nprocs 6
|  6> end
|  7>
|  8> %maxcore 8000
|  9>
| 10> %scf
| 11>     ConvForced true
| 12> end
| 13>
| 14> *xyz 0 1
| 15> C  -4.219070000  -3.477410000  -1.501740000
| 16> H  -3.251530000  -3.803540000  -1.893830000
| 17> H  -4.452920000  -2.481700000  -1.890840000
| 18> H  -4.992170000  -4.178130000  -1.824640000
| 19> C  -4.154550000  -3.418790000  -0.058340000
| 20> N  -4.091140000  -3.354840000   1.104432000
| 21> C  -1.955700000   2.515080000   1.698463000
| 22> H  -2.923830000   2.883163000   2.049269000
| 23> H  -1.154850000   3.171830000   2.050990000
| 24> H  -1.790380000   1.506115000   2.087896000
| 25> C  -1.948230000   2.482156000   0.253672000
| 26> N  -1.937550000   2.462523000  -0.913150000
| 27> *
| 28>
| 29>                          ****END OF INPUT****

CARTESIAN COORDINATES (ANGSTROEM)
---------------------------------
  C     -4.219070   -3.477410   -1.501740
  H     -3.251530   -3.803540   -1.893830
  H     -4.452920   -2.481700   -1.890840
  H     -4.992170   -4.178130   -1.824640
  C     -4.154550   -3.418790   -0.058340
  N     -4.091140   -3.354840    1.104432
  C     -1.955700    2.515080    1.698463
  H     -2.923830    2.883163    2.049269
  H     -1.154850    3.171830    2.050990
  H     -1.790380    1.506115    2.087896
  C     -1.948230    2.482156    0.253672
  N     -1.937550    2.462523   -0.913150

 Total Charge           Charge          ....    0
 Multiplicity           Mult            ....    1
 Number of Electrons    NEL             ....   44
 Basis Dimension        Dim             ....  222

ORBITAL ENERGIES
----------------

  NO   OCC          E(Eh)            E(eV)
   0   2.0000     -15.573003      -423.7630
   1   2.0000     -15.572467      -423.7484
   2   2.0000     -11.283401      -307.0369
   3   2.0000     -11.282946      -307.0246
   4   2.0000     -11.280538      -306.9590
   5   2.0000     -11.279980      -306.9438
   6   2.0000      -1.214986       -33.0615
   7   2.0000      -1.213959       -33.0335
   8   2.0000      -1.042379       -28.3646
   9   2.0000      -1.042063       -28.3560
  10   2.0000      -0.699370       -19.0308
  11   2.0000      -0.697965       -18.9926
  12   2.0000      -0.630913       -17.1680
  13   2.0000      -0.630240       -17.1497
  14   2.0000      -0.629513       -17.1299
  15   2.0000      -0.628678       -17.1072
  16   2.0000      -0.556492       -15.1429
  17   2.0000      -0.555703       -15.1214
  18   2.0000      -0.458082       -12.4651
  19   2.0000      -0.457865       -12.4591
  20   2.0000      -0.457166       -12.4401
  21   2.0000      -0.456863       -12.4319
  22   0.0000       0.116687         3.1752
  23   0.0000       0.125130         3.4050
  24   0.0000       0.171877         4.6770
  25   0.0000       0.172485         4.6935
  26   0.0000       0.172782         4.7016

MULLIKEN ATOMIC CHARGES
-----------------------
   0 C :   -0.279657
   1 H :    0.172537
   2 H :    0.177089
   3 H :    0.171259
   4 C :   -0.144974
   5 N :   -0.096241
   6 C :   -0.278700
   7 H :    0.172008
   8 H :    0.171174
   9 H :    0.177880
  10 C :   -0.145182
  11 N :   -0.097194
Sum of atomic charges:    0.0000000

LOEWDIN ATOMIC CHARGES
----------------------
   0 C :   -0.282967
   1 H :    0.153236
   2 H :    0.154803
   3 H :    0.150926
   4 C :   -0.218398
   5 N :    0.042406
   6 C :   -0.282966
   7 H :    0.152887
   8 H :    0.152612
   9 H :    0.154546
  10 C :   -0.219043
  11 N :    0.041959

  Mayer bond orders larger than 0.100000
B(  0-C ,  1-H ) :   0.9158 B(  0-C ,  2-H ) :   0.9148 B(  0-C ,  3-H ) :   0.9165
B(  0-C ,  4-C ) :   0.9028 B(  4-C ,  5-N ) :   2.8400 B(  6-C ,  7-H ) :   0.9158
B(  6-C ,  8-H ) :   0.9164 B(  6-C ,  9-H ) :   0.9148 B(  6-C , 10-C ) :   0.9018
B( 10-C , 11-N ) :   2.8397

MP2 TOTAL ENERGY:     -264.967654628 Eh
FINAL SINGLE POINT ENERGY      -264.967654627964

DIPOLE MOMENT
-------------
                                X             Y             Z
Electronic contribution:      0.14957       0.05637       0.00557
Nuclear contribution   :     -0.23509      -0.10145      -0.00349
                        -----------------------------------------
Total Dipole Moment    :     -0.08552      -0.04509       0.00209
                        -----------------------------------------
Magnitude (a.u.)       :      0.09670
Magnitude (Debye)      :      0.24580

Rotational constants in cm-1:     0.157428     0.020228     0.018051
Rotational constants in MHz :  4719.570536   606.431738   541.142473

                             ****ORCA TERMINATED NORMALLY****
TOTAL RUN TIME: 0 days 0 hours 0 minutes 52 seconds 85 msec
