                         Program Version 4.2.0 -  RELEASE  -
|  1> # 12meoh.boyd.etal.mol3,5,10
|  2> ! MP2 def2-TZVP EnGrad TightSCF
|  3>
|  4> %pal
|  5>     nprocs 6
|  6> end
|  7>
|  8> %maxcore 8000
|  9>
| 10> %scf
| 11>     ConvForced true
| 12> end
| 13>
| 14> *xyz 0 1
| 15> O  -3.821405976  -2.118091637   0.596795346
| 16> H  -4.342989117  -1.344303030   0.251966383
| 17> C  -3.443883586  -1.809641231   1.934889393
| 18> H  -2.831494349  -2.637429600   2.305201764
| 19> H  -4.325601146  -1.719364371   2.585074667
| 20> H  -2.858527126  -0.882644791   1.996110694
| 21> O  -0.662721750   1.449094618  -1.383082065
| 22> H   0.064188300   2.119867608  -1.465650660
| 23> C  -0.353319239   0.341218776  -2.229326771
| 24> H  -1.072358530  -0.454743281  -2.019906495
| 25> H   0.657636746  -0.044472139  -2.042736771
| 26> H  -0.434616607   0.624733901  -3.287793021
| 27> O  -5.201143618   0.064582726  -0.172223772
| 28> H  -4.686891530   0.869258890   0.107806143
| 29> C  -6.513192168   0.171391798   0.359883449
| 30> H  -7.049381312  -0.749234190   0.111361174
| 31> H  -7.057741163   1.017801101  -0.081819420
| 32> H  -6.514770575   0.292264928   1.453058834
| 33> *
| 34>
| 35>                          ****END OF INPUT****

CARTESIAN COORDINATES (ANGSTROEM)
---------------------------------
  O     -3.821406   -2.118092    0.596795
  H     -4.342989   -1.344303    0.251966
  C     -3.443884   -1.809641    1.934889
  H     -2.831494   -2.637430    2.305202
  H     -4.325601   -1.719364    2.585075
  H     -2.858527   -0.882645    1.996111
  O     -0.662722    1.449095   -1.383082
  H      0.064188    2.119868   -1.465651
  C     -0.353319    0.341219   -2.229327
  H     -1.072359   -0.454743   -2.019906
  H      0.657637   -0.044472   -2.042737
  H     -0.434617    0.624734   -3.287793
  O     -5.201144    0.064583   -0.172224
  H     -4.686892    0.869259    0.107806
  C     -6.513192    0.171392    0.359883
  H     -7.049381   -0.749234    0.111361
  H     -7.057741    1.017801   -0.081819
  H     -6.514771    0.292265    1.453059

 Total Charge           Charge          ....    0
 Multiplicity           Mult            ....    1
 Number of Electrons    NEL             ....   54
 Basis Dimension        Dim             ....  258

ORBITAL ENERGIES
----------------

  NO   OCC          E(Eh)            E(eV)
   0   2.0000     -20.585918      -560.1713
   1   2.0000     -20.555697      -559.3490
   2   2.0000     -20.512159      -558.1642
   3   2.0000     -11.287328      -307.1438
   4   2.0000     -11.267572      -306.6062
   5   2.0000     -11.249563      -306.1162
   6   2.0000      -1.380099       -37.5544
   7   2.0000      -1.343705       -36.5641
   8   2.0000      -1.308833       -35.6152
   9   2.0000      -0.938828       -25.5468
  10   2.0000      -0.916326       -24.9345
  11   2.0000      -0.895117       -24.3574
  12   2.0000      -0.711617       -19.3641
  13   2.0000      -0.678627       -18.4664
  14   2.0000      -0.672963       -18.3123
  15   2.0000      -0.629940       -17.1415
  16   2.0000      -0.613684       -16.6992
  17   2.0000      -0.608165       -16.5490
  18   2.0000      -0.590965       -16.0810
  19   2.0000      -0.587445       -15.9852
  20   2.0000      -0.559602       -15.2275
  21   2.0000      -0.524048       -14.2601
  22   2.0000      -0.497609       -13.5406
  23   2.0000      -0.485981       -13.2242
  24   2.0000      -0.454130       -12.3575
  25   2.0000      -0.447395       -12.1742
  26   2.0000      -0.415697       -11.3117
  27   0.0000       0.116373         3.1667
  28   0.0000       0.137659         3.7459
  29   0.0000       0.162148         4.4123
  30   0.0000       0.178693         4.8625
  31   0.0000       0.180296         4.9061

MULLIKEN ATOMIC CHARGES
-----------------------
   0 O :   -0.529028
   1 H :    0.361322
   2 C :   -0.185681
   3 H :    0.124077
   4 H :    0.094967
   5 H :    0.099974
   6 O :   -0.507253
   7 H :    0.320940
   8 C :   -0.178763
   9 H :    0.146249
  10 H :    0.109714
  11 H :    0.107919
  12 O :   -0.514678
  13 H :    0.346187
  14 C :   -0.192340
  15 H :    0.146487
  16 H :    0.126239
  17 H :    0.123667
Sum of atomic charges:   -0.0000000

LOEWDIN ATOMIC CHARGES
----------------------
   0 O :   -0.122855
   1 H :    0.159382
   2 C :   -0.398760
   3 H :    0.106639
   4 H :    0.089240
   5 H :    0.090480
   6 O :   -0.117244
   7 H :    0.187828
   8 C :   -0.376258
   9 H :    0.114066
  10 H :    0.095813
  11 H :    0.095110
  12 O :   -0.069361
  13 H :    0.202382
  14 C :   -0.377698
  15 H :    0.116782
  16 H :    0.103919
  17 H :    0.100535

  Mayer bond orders larger than 0.100000
B(  0-O ,  1-H ) :   0.7898 B(  0-O ,  2-C ) :   0.9438 B(  2-C ,  3-H ) :   0.9430
B(  2-C ,  4-H ) :   0.9373 B(  2-C ,  5-H ) :   0.9388 B(  6-O ,  7-H ) :   0.8432
B(  6-O ,  8-C ) :   0.9160 B(  8-C ,  9-H ) :   0.9348 B(  8-C , 10-H ) :   0.9402
B(  8-C , 11-H ) :   0.9385 B( 12-O , 13-H ) :   0.8248 B( 12-O , 14-C ) :   0.8759
B( 14-C , 15-H ) :   0.9392 B( 14-C , 16-H ) :   0.9351 B( 14-C , 17-H ) :   0.9368

MP2 TOTAL ENERGY:     -346.530541317 Eh
FINAL SINGLE POINT ENERGY      -346.530541317189

DIPOLE MOMENT
-------------
                                X             Y             Z
Electronic contribution:      0.46278       0.73738      -1.48011
Nuclear contribution   :     -0.51998       0.57602       1.62493
                        -----------------------------------------
Total Dipole Moment    :     -0.05720       1.31340       0.14482
                        -----------------------------------------
Magnitude (a.u.)       :      1.32259
Magnitude (Debye)      :      3.36177

Rotational constants in cm-1:     0.080748     0.025965     0.021302
Rotational constants in MHz :  2420.778327   778.417256   638.624400

                             ****ORCA TERMINATED NORMALLY****
TOTAL RUN TIME: 0 days 0 hours 1 minutes 9 seconds 285 msec
