                         Program Version 4.2.0 -  RELEASE  -
|  1> # 12h2o.su.etal.mol5,10
|  2> ! MP2 def2-TZVP EnGrad TightSCF
|  3>
|  4> %pal
|  5>     nprocs 6
|  6> end
|  7>
|  8> %maxcore 8000
|  9>
| 10> %scf
| 11>     ConvForced true
| 12> end
| 13>
| 14> *xyz 0 1
| 15> O   0.885520000  -1.737840000   0.052730000
| 16> H   1.284090000  -0.839590000   0.017130000
| 17> H   1.032320000  -2.090180000  -0.841890000
| 18> O  -0.923410000   1.794470000  -2.768350000
| 19> H  -1.359750000   2.338250000  -3.430940000
| 20> H  -1.303000000   0.879480000  -2.865760000
| 21> *
| 22>
| 23>                          ****END OF INPUT****

CARTESIAN COORDINATES (ANGSTROEM)
---------------------------------
  O      0.885520   -1.737840    0.052730
  H      1.284090   -0.839590    0.017130
  H      1.032320   -2.090180   -0.841890
  O     -0.923410    1.794470   -2.768350
  H     -1.359750    2.338250   -3.430940
  H     -1.303000    0.879480   -2.865760

 Total Charge           Charge          ....    0
 Multiplicity           Mult            ....    1
 Number of Electrons    NEL             ....   20
 Basis Dimension        Dim             ....   86

ORBITAL ENERGIES
----------------

  NO   OCC          E(Eh)            E(eV)
   0   2.0000     -20.566934      -559.6547
   1   2.0000     -20.560912      -559.4909
   2   2.0000      -1.342273       -36.5251
   3   2.0000      -1.336933       -36.3798
   4   2.0000      -0.710722       -19.3397
   5   2.0000      -0.699056       -19.0223
   6   2.0000      -0.578378       -15.7385
   7   2.0000      -0.576145       -15.6777
   8   2.0000      -0.510144       -13.8817
   9   2.0000      -0.503785       -13.7087
  10   0.0000       0.110449         3.0055
  11   0.0000       0.139119         3.7856
  12   0.0000       0.192812         5.2467
  13   0.0000       0.202596         5.5129
  14   0.0000       0.507627        13.8132

MULLIKEN ATOMIC CHARGES
-----------------------
   0 O :   -0.676422
   1 H :    0.342459
   2 H :    0.334226
   3 O :   -0.683654
   4 H :    0.340436
   5 H :    0.342955
Sum of atomic charges:   -0.0000000

LOEWDIN ATOMIC CHARGES
----------------------
   0 O :   -0.338038
   1 H :    0.174367
   2 H :    0.163881
   3 O :   -0.339622
   4 H :    0.158586
   5 H :    0.180827

  Mayer bond orders larger than 0.100000
B(  0-O ,  1-H ) :   0.8483 B(  0-O ,  2-H ) :   0.8548 B(  3-O ,  4-H ) :   0.8524
B(  3-O ,  5-H ) :   0.8453

MP2 TOTAL ENERGY:     -152.625334035 Eh
FINAL SINGLE POINT ENERGY      -152.625334035177

DIPOLE MOMENT
-------------
                                X             Y             Z
Electronic contribution:      0.02870      -0.00986       0.22452
Nuclear contribution   :     -0.22520       0.14541      -1.40687
                        -----------------------------------------
Total Dipole Moment    :     -0.19650       0.13555      -1.18236
                        -----------------------------------------
Magnitude (a.u.)       :      1.20622
Magnitude (Debye)      :      3.06595

Rotational constants in cm-1:     7.228933     0.078683     0.078213
Rotational constants in MHz : 216717.962371  2358.848102  2344.761894

                             ****ORCA TERMINATED NORMALLY****
TOTAL RUN TIME: 0 days 0 hours 0 minutes 6 seconds 271 msec
