                         Program Version 4.2.0 -  RELEASE  -
|  1> # 12h2o.su.etal.mol0,2,3,5,8
|  2> ! MP2 def2-TZVP EnGrad TightSCF
|  3>
|  4> %pal
|  5>     nprocs 6
|  6> end
|  7>
|  8> %maxcore 8000
|  9>
| 10> %scf
| 11>     ConvForced true
| 12> end
| 13>
| 14> *xyz 0 1
| 15> O   1.794470000   0.923410000   2.768350000
| 16> H   2.338250000   1.359750000   3.430940000
| 17> H   0.879480000   1.303000000   2.865760000
| 18> O   0.923410000  -1.794470000  -2.768350000
| 19> H   1.359750000  -2.338250000  -3.430940000
| 20> H   1.303000000  -0.879480000  -2.865760000
| 21> O  -1.752130000  -0.741530000  -2.896280000
| 22> H  -2.036450000  -0.920500000  -1.984040000
| 23> H  -0.921210000  -1.242140000  -2.984230000
| 24> O   0.885520000  -1.737840000   0.052730000
| 25> H   1.284090000  -0.839590000   0.017130000
| 26> H   1.032320000  -2.090180000  -0.841890000
| 27> O   1.752130000   0.741530000  -2.896280000
| 28> H   2.036450000   0.920500000  -1.984040000
| 29> H   0.921210000   1.242140000  -2.984230000
| 30> *
| 31>
| 32>                          ****END OF INPUT****

CARTESIAN COORDINATES (ANGSTROEM)
---------------------------------
  O      1.794470    0.923410    2.768350
  H      2.338250    1.359750    3.430940
  H      0.879480    1.303000    2.865760
  O      0.923410   -1.794470   -2.768350
  H      1.359750   -2.338250   -3.430940
  H      1.303000   -0.879480   -2.865760
  O     -1.752130   -0.741530   -2.896280
  H     -2.036450   -0.920500   -1.984040
  H     -0.921210   -1.242140   -2.984230
  O      0.885520   -1.737840    0.052730
  H      1.284090   -0.839590    0.017130
  H      1.032320   -2.090180   -0.841890
  O      1.752130    0.741530   -2.896280
  H      2.036450    0.920500   -1.984040
  H      0.921210    1.242140   -2.984230

 Total Charge           Charge          ....    0
 Multiplicity           Mult            ....    1
 Number of Electrons    NEL             ....   50
 Basis Dimension        Dim             ....  215

ORBITAL ENERGIES
----------------

  NO   OCC          E(Eh)            E(eV)
   0   2.0000     -20.613146      -560.9122
   1   2.0000     -20.569621      -559.7279
   2   2.0000     -20.569050      -559.7123
   3   2.0000     -20.531756      -558.6975
   4   2.0000     -20.531174      -558.6816
   5   2.0000      -1.399297       -38.0768
   6   2.0000      -1.355497       -36.8849
   7   2.0000      -1.344863       -36.5956
   8   2.0000      -1.313437       -35.7404
   9   2.0000      -1.310343       -35.6563
  10   2.0000      -0.755299       -20.5527
  11   2.0000      -0.737806       -20.0767
  12   2.0000      -0.713254       -19.4086
  13   2.0000      -0.684001       -18.6126
  14   2.0000      -0.679866       -18.5001
  15   2.0000      -0.639613       -17.4047
  16   2.0000      -0.599903       -16.3242
  17   2.0000      -0.581015       -15.8102
  18   2.0000      -0.564440       -15.3592
  19   2.0000      -0.554558       -15.0903
  20   2.0000      -0.537691       -14.6313
  21   2.0000      -0.512805       -13.9541
  22   2.0000      -0.510288       -13.8856
  23   2.0000      -0.479521       -13.0484
  24   2.0000      -0.476679       -12.9711
  25   0.0000       0.088843         2.4175
  26   0.0000       0.120747         3.2857
  27   0.0000       0.148084         4.0296
  28   0.0000       0.167935         4.5698
  29   0.0000       0.177669         4.8346

MULLIKEN ATOMIC CHARGES
-----------------------
   0 O :   -0.683193
   1 H :    0.340374
   2 H :    0.344929
   3 O :   -0.746852
   4 H :    0.350306
   5 H :    0.379184
   6 O :   -0.717199
   7 H :    0.336053
   8 H :    0.360809
   9 O :   -0.688080
  10 H :    0.311277
  11 H :    0.363209
  12 O :   -0.683290
  13 H :    0.358001
  14 H :    0.374472
Sum of atomic charges:   -0.0000000

LOEWDIN ATOMIC CHARGES
----------------------
   0 O :   -0.338698
   1 H :    0.158778
   2 H :    0.181819
   3 O :   -0.311646
   4 H :    0.159189
   5 H :    0.145329
   6 O :   -0.351651
   7 H :    0.162484
   8 H :    0.145793
   9 O :   -0.343960
  10 H :    0.157093
  11 H :    0.146458
  12 O :   -0.266438
  13 H :    0.173195
  14 H :    0.182255

  Mayer bond orders larger than 0.100000
B(  0-O ,  1-H ) :   0.8518 B(  0-O ,  2-H ) :   0.8440 B(  3-O ,  4-H ) :   0.8403
B(  3-O ,  5-H ) :   0.7533 B(  6-O ,  7-H ) :   0.8528 B(  6-O ,  8-H ) :   0.8141
B(  9-O , 10-H ) :   0.8624 B(  9-O , 11-H ) :   0.8185 B( 12-O , 13-H ) :   0.8362
B( 12-O , 14-H ) :   0.8228

MP2 TOTAL ENERGY:     -381.591755217 Eh
FINAL SINGLE POINT ENERGY      -381.591755216965

DIPOLE MOMENT
-------------
                                X             Y             Z
Electronic contribution:      0.12233      -0.01955      -0.23911
Nuclear contribution   :      0.82411       1.44252       0.59793
                        -----------------------------------------
Total Dipole Moment    :      0.94644       1.42297       0.35883
                        -----------------------------------------
Magnitude (a.u.)       :      1.74624
Magnitude (Debye)      :      4.43859

Rotational constants in cm-1:     0.078384     0.027541     0.025661
Rotational constants in MHz :  2349.905647   825.669010   769.287221

                             ****ORCA TERMINATED NORMALLY****
TOTAL RUN TIME: 0 days 0 hours 0 minutes 31 seconds 709 msec
