                         Program Version 4.2.0 -  RELEASE  -
|  1> # 12h2o.su.etal.mol0,2,5,6,7
|  2> ! MP2 def2-TZVP EnGrad TightSCF
|  3>
|  4> %pal
|  5>     nprocs 6
|  6> end
|  7>
|  8> %maxcore 8000
|  9>
| 10> %scf
| 11>     ConvForced true
| 12> end
| 13>
| 14> *xyz 0 1
| 15> O   1.794470000   0.923410000   2.768350000
| 16> H   2.338250000   1.359750000   3.430940000
| 17> H   0.879480000   1.303000000   2.865760000
| 18> O   0.923410000  -1.794470000  -2.768350000
| 19> H   1.359750000  -2.338250000  -3.430940000
| 20> H   1.303000000  -0.879480000  -2.865760000
| 21> O   0.885520000  -1.737840000   0.052730000
| 22> H   1.284090000  -0.839590000   0.017130000
| 23> H   1.032320000  -2.090180000  -0.841890000
| 24> O   1.737840000   0.885520000  -0.052730000
| 25> H   2.090180000   1.032320000   0.841890000
| 26> H   0.839590000   1.284090000  -0.017130000
| 27> O  -1.737840000  -0.885520000  -0.052730000
| 28> H  -2.090180000  -1.032320000   0.841890000
| 29> H  -0.839590000  -1.284090000  -0.017130000
| 30> *
| 31>
| 32>                          ****END OF INPUT****

CARTESIAN COORDINATES (ANGSTROEM)
---------------------------------
  O      1.794470    0.923410    2.768350
  H      2.338250    1.359750    3.430940
  H      0.879480    1.303000    2.865760
  O      0.923410   -1.794470   -2.768350
  H      1.359750   -2.338250   -3.430940
  H      1.303000   -0.879480   -2.865760
  O      0.885520   -1.737840    0.052730
  H      1.284090   -0.839590    0.017130
  H      1.032320   -2.090180   -0.841890
  O      1.737840    0.885520   -0.052730
  H      2.090180    1.032320    0.841890
  H      0.839590    1.284090   -0.017130
  O     -1.737840   -0.885520   -0.052730
  H     -2.090180   -1.032320    0.841890
  H     -0.839590   -1.284090   -0.017130

 Total Charge           Charge          ....    0
 Multiplicity           Mult            ....    1
 Number of Electrons    NEL             ....   50
 Basis Dimension        Dim             ....  215

ORBITAL ENERGIES
----------------

  NO   OCC          E(Eh)            E(eV)
   0   2.0000     -20.598733      -560.5200
   1   2.0000     -20.575864      -559.8977
   2   2.0000     -20.567852      -559.6797
   3   2.0000     -20.516772      -558.2897
   4   2.0000     -20.507899      -558.0483
   5   2.0000      -1.377166       -37.4746
   6   2.0000      -1.354242       -36.8508
   7   2.0000      -1.350804       -36.7573
   8   2.0000      -1.307458       -35.5777
   9   2.0000      -1.286399       -35.0047
  10   2.0000      -0.743552       -20.2331
  11   2.0000      -0.720670       -19.6104
  12   2.0000      -0.714557       -19.4441
  13   2.0000      -0.680982       -18.5305
  14   2.0000      -0.660998       -17.9867
  15   2.0000      -0.620582       -16.8869
  16   2.0000      -0.600689       -16.3456
  17   2.0000      -0.585184       -15.9237
  18   2.0000      -0.559345       -15.2205
  19   2.0000      -0.538463       -14.6523
  20   2.0000      -0.534535       -14.5454
  21   2.0000      -0.514068       -13.9885
  22   2.0000      -0.499577       -13.5942
  23   2.0000      -0.463557       -12.6140
  24   2.0000      -0.455557       -12.3963
  25   0.0000       0.094979         2.5845
  26   0.0000       0.123511         3.3609
  27   0.0000       0.153477         4.1763
  28   0.0000       0.179456         4.8832
  29   0.0000       0.191084         5.1997

MULLIKEN ATOMIC CHARGES
-----------------------
   0 O :   -0.691837
   1 H :    0.354365
   2 H :    0.354663
   3 O :   -0.691373
   4 H :    0.346318
   5 H :    0.358661
   6 O :   -0.729821
   7 H :    0.357831
   8 H :    0.369604
   9 O :   -0.707375
  10 H :    0.380314
  11 H :    0.346321
  12 O :   -0.726139
  13 H :    0.316283
  14 H :    0.362187
Sum of atomic charges:   -0.0000000

LOEWDIN ATOMIC CHARGES
----------------------
   0 O :   -0.307724
   1 H :    0.164591
   2 H :    0.186047
   3 O :   -0.308794
   4 H :    0.160799
   5 H :    0.186800
   6 O :   -0.318849
   7 H :    0.139392
   8 H :    0.147420
   9 O :   -0.301153
  10 H :    0.154087
  11 H :    0.172548
  12 O :   -0.369116
  13 H :    0.152184
  14 H :    0.141768

  Mayer bond orders larger than 0.100000
B(  0-O ,  1-H ) :   0.8406 B(  0-O ,  2-H ) :   0.8341 B(  3-O ,  4-H ) :   0.8450
B(  3-O ,  5-H ) :   0.8316 B(  6-O ,  7-H ) :   0.7895 B(  6-O ,  8-H ) :   0.8138
B(  6-O , 14-H ) :   0.1059 B(  9-O , 10-H ) :   0.8018 B(  9-O , 11-H ) :   0.8383
B( 12-O , 13-H ) :   0.8642 B( 12-O , 14-H ) :   0.7779

MP2 TOTAL ENERGY:     -381.597709539 Eh
FINAL SINGLE POINT ENERGY      -381.597709538663

DIPOLE MOMENT
-------------
                                X             Y             Z
Electronic contribution:      0.27625      -0.10119      -0.09900
Nuclear contribution   :      0.82411       1.44252       0.77428
                        -----------------------------------------
Total Dipole Moment    :      1.10036       1.34133       0.67528
                        -----------------------------------------
Magnitude (a.u.)       :      1.86171
Magnitude (Debye)      :      4.73210

Rotational constants in cm-1:     0.091816     0.039043     0.031767
Rotational constants in MHz :  2752.566897  1170.470300   952.353253

                             ****ORCA TERMINATED NORMALLY****
TOTAL RUN TIME: 0 days 0 hours 0 minutes 36 seconds 605 msec
