                         Program Version 4.2.0 -  RELEASE  -
|  1> # 12meoh.boyd.etal.mol0,3,4
|  2> ! MP2 def2-TZVP EnGrad TightSCF
|  3>
|  4> %pal
|  5>     nprocs 6
|  6> end
|  7>
|  8> %maxcore 8000
|  9>
| 10> %scf
| 11>     ConvForced true
| 12> end
| 13>
| 14> *xyz 0 1
| 15> O  -1.776108874  -2.741384797  -1.019308298
| 16> H  -2.520094035  -2.452295987  -0.420778302
| 17> C  -2.174025166  -3.952700964  -1.647004581
| 18> H  -1.359803895  -4.272673416  -2.304149236
| 19> H  -3.075973971  -3.808692420  -2.256751112
| 20> H  -2.370225393  -4.752784761  -0.918966137
| 21> O  -3.821405976  -2.118091637   0.596795346
| 22> H  -4.342989117  -1.344303030   0.251966383
| 23> C  -3.443883586  -1.809641231   1.934889393
| 24> H  -2.831494349  -2.637429600   2.305201764
| 25> H  -4.325601146  -1.719364371   2.585074667
| 26> H  -2.858527126  -0.882644791   1.996110694
| 27> O  -1.358578914   1.232360421   1.189721000
| 28> H  -1.058250183   1.216459361   0.238591307
| 29> C  -0.389763452   1.957872567   1.943072362
| 30> H  -0.747220771   2.012806578   2.975200343
| 31> H  -0.260410585   2.982763209   1.565366540
| 32> H   0.585220638   1.453754179   1.934070793
| 33> *
| 34>
| 35>                          ****END OF INPUT****

CARTESIAN COORDINATES (ANGSTROEM)
---------------------------------
  O     -1.776109   -2.741385   -1.019308
  H     -2.520094   -2.452296   -0.420778
  C     -2.174025   -3.952701   -1.647005
  H     -1.359804   -4.272673   -2.304149
  H     -3.075974   -3.808692   -2.256751
  H     -2.370225   -4.752785   -0.918966
  O     -3.821406   -2.118092    0.596795
  H     -4.342989   -1.344303    0.251966
  C     -3.443884   -1.809641    1.934889
  H     -2.831494   -2.637430    2.305202
  H     -4.325601   -1.719364    2.585075
  H     -2.858527   -0.882645    1.996111
  O     -1.358579    1.232360    1.189721
  H     -1.058250    1.216459    0.238591
  C     -0.389763    1.957873    1.943072
  H     -0.747221    2.012807    2.975200
  H     -0.260411    2.982763    1.565367
  H      0.585221    1.453754    1.934071

 Total Charge           Charge          ....    0
 Multiplicity           Mult            ....    1
 Number of Electrons    NEL             ....   54
 Basis Dimension        Dim             ....  258

ORBITAL ENERGIES
----------------

  NO   OCC          E(Eh)            E(eV)
   0   2.0000     -20.581078      -560.0396
   1   2.0000     -20.562915      -559.5454
   2   2.0000     -20.509153      -558.0824
   3   2.0000     -11.275556      -306.8235
   4   2.0000     -11.275397      -306.8191
   5   2.0000     -11.244287      -305.9726
   6   2.0000      -1.374139       -37.3922
   7   2.0000      -1.350488       -36.7486
   8   2.0000      -1.306066       -35.5399
   9   2.0000      -0.928843       -25.2751
  10   2.0000      -0.923289       -25.1240
  11   2.0000      -0.890325       -24.2270
  12   2.0000      -0.706063       -19.2130
  13   2.0000      -0.685394       -18.6505
  14   2.0000      -0.665694       -18.1145
  15   2.0000      -0.624334       -16.9890
  16   2.0000      -0.620433       -16.8828
  17   2.0000      -0.599555       -16.3147
  18   2.0000      -0.594968       -16.1899
  19   2.0000      -0.585963       -15.9449
  20   2.0000      -0.556956       -15.1555
  21   2.0000      -0.517998       -14.0954
  22   2.0000      -0.505572       -13.7573
  23   2.0000      -0.478805       -13.0289
  24   2.0000      -0.454122       -12.3573
  25   2.0000      -0.448508       -12.2045
  26   2.0000      -0.411876       -11.2077
  27   0.0000       0.121465         3.3052
  28   0.0000       0.140940         3.8352
  29   0.0000       0.170319         4.6346
  30   0.0000       0.176464         4.8018
  31   0.0000       0.179710         4.8902

MULLIKEN ATOMIC CHARGES
-----------------------
   0 O :   -0.540961
   1 H :    0.342437
   2 C :   -0.154747
   3 H :    0.116714
   4 H :    0.093997
   5 H :    0.096952
   6 O :   -0.519938
   7 H :    0.341390
   8 C :   -0.198010
   9 H :    0.136802
  10 H :    0.118947
  11 H :    0.156075
  12 O :   -0.503576
  13 H :    0.330510
  14 C :   -0.172694
  15 H :    0.127119
  16 H :    0.111735
  17 H :    0.117246
Sum of atomic charges:    0.0000000

LOEWDIN ATOMIC CHARGES
----------------------
   0 O :   -0.129170
   1 H :    0.158121
   2 C :   -0.396591
   3 H :    0.104012
   4 H :    0.090607
   5 H :    0.091876
   6 O :   -0.075721
   7 H :    0.199623
   8 C :   -0.375225
   9 H :    0.114375
  10 H :    0.101617
  11 H :    0.106969
  12 O :   -0.112051
  13 H :    0.196228
  14 C :   -0.379083
  15 H :    0.109444
  16 H :    0.097258
  17 H :    0.097710

  Mayer bond orders larger than 0.100000
B(  0-O ,  1-H ) :   0.7839 B(  0-O ,  2-C ) :   0.9433 B(  1-H ,  6-O ) :   0.1045
B(  2-C ,  3-H ) :   0.9408 B(  2-C ,  4-H ) :   0.9437 B(  2-C ,  5-H ) :   0.9367
B(  6-O ,  7-H ) :   0.8284 B(  6-O ,  8-C ) :   0.8573 B(  8-C ,  9-H ) :   0.9394
B(  8-C , 10-H ) :   0.9348 B(  8-C , 11-H ) :   0.9294 B( 12-O , 13-H ) :   0.8344
B( 12-O , 14-C ) :   0.9167 B( 14-C , 15-H ) :   0.9395 B( 14-C , 16-H ) :   0.9356
B( 14-C , 17-H ) :   0.9382

MP2 TOTAL ENERGY:     -346.533319856 Eh
FINAL SINGLE POINT ENERGY      -346.533319855823

DIPOLE MOMENT
-------------
                                X             Y             Z
Electronic contribution:     -1.18705       0.34945      -1.42532
Nuclear contribution   :      0.84006       0.49969       1.93446
                        -----------------------------------------
Total Dipole Moment    :     -0.34699       0.84914       0.50914
                        -----------------------------------------
Magnitude (a.u.)       :      1.04912
Magnitude (Debye)      :      2.66666

Rotational constants in cm-1:     0.101436     0.027402     0.022576
Rotational constants in MHz :  3040.980761   821.483265   676.806280

                             ****ORCA TERMINATED NORMALLY****
TOTAL RUN TIME: 0 days 0 hours 1 minutes 13 seconds 534 msec
