                         Program Version 4.2.0 -  RELEASE  -
|  1> # 12h2o.su.etal.mol2,3,5,8,10,11
|  2> ! MP2 def2-TZVP EnGrad TightSCF
|  3>
|  4> %pal
|  5>     nprocs 6
|  6> end
|  7>
|  8> %maxcore 8000
|  9>
| 10> %scf
| 11>     ConvForced true
| 12> end
| 13>
| 14> *xyz 0 1
| 15> O   0.923410000  -1.794470000  -2.768350000
| 16> H   1.359750000  -2.338250000  -3.430940000
| 17> H   1.303000000  -0.879480000  -2.865760000
| 18> O  -1.752130000  -0.741530000  -2.896280000
| 19> H  -2.036450000  -0.920500000  -1.984040000
| 20> H  -0.921210000  -1.242140000  -2.984230000
| 21> O   0.885520000  -1.737840000   0.052730000
| 22> H   1.284090000  -0.839590000   0.017130000
| 23> H   1.032320000  -2.090180000  -0.841890000
| 24> O   1.752130000   0.741530000  -2.896280000
| 25> H   2.036450000   0.920500000  -1.984040000
| 26> H   0.921210000   1.242140000  -2.984230000
| 27> O  -0.923410000   1.794470000  -2.768350000
| 28> H  -1.359750000   2.338250000  -3.430940000
| 29> H  -1.303000000   0.879480000  -2.865760000
| 30> O  -0.741530000   1.752130000   2.896280000
| 31> H  -0.920500000   2.036450000   1.984040000
| 32> H  -1.242140000   0.921210000   2.984230000
| 33> *
| 34>
| 35>                          ****END OF INPUT****

CARTESIAN COORDINATES (ANGSTROEM)
---------------------------------
  O      0.923410   -1.794470   -2.768350
  H      1.359750   -2.338250   -3.430940
  H      1.303000   -0.879480   -2.865760
  O     -1.752130   -0.741530   -2.896280
  H     -2.036450   -0.920500   -1.984040
  H     -0.921210   -1.242140   -2.984230
  O      0.885520   -1.737840    0.052730
  H      1.284090   -0.839590    0.017130
  H      1.032320   -2.090180   -0.841890
  O      1.752130    0.741530   -2.896280
  H      2.036450    0.920500   -1.984040
  H      0.921210    1.242140   -2.984230
  O     -0.923410    1.794470   -2.768350
  H     -1.359750    2.338250   -3.430940
  H     -1.303000    0.879480   -2.865760
  O     -0.741530    1.752130    2.896280
  H     -0.920500    2.036450    1.984040
  H     -1.242140    0.921210    2.984230

 Total Charge           Charge          ....    0
 Multiplicity           Mult            ....    1
 Number of Electrons    NEL             ....   60
 Basis Dimension        Dim             ....  258

ORBITAL ENERGIES
----------------

  NO   OCC          E(Eh)            E(eV)
   0   2.0000     -20.587727      -560.2205
   1   2.0000     -20.579038      -559.9841
   2   2.0000     -20.578041      -559.9570
   3   2.0000     -20.559363      -559.4487
   4   2.0000     -20.558895      -559.4360
   5   2.0000     -20.545122      -559.0612
   6   2.0000      -1.383354       -37.6430
   7   2.0000      -1.369772       -37.2734
   8   2.0000      -1.359669       -36.9985
   9   2.0000      -1.338978       -36.4354
  10   2.0000      -1.338606       -36.4253
  11   2.0000      -1.323699       -36.0197
  12   2.0000      -0.745368       -20.2825
  13   2.0000      -0.739786       -20.1306
  14   2.0000      -0.727934       -19.8081
  15   2.0000      -0.721401       -19.6303
  16   2.0000      -0.701404       -19.0862
  17   2.0000      -0.693471       -18.8703
  18   2.0000      -0.640110       -17.4183
  19   2.0000      -0.610487       -16.6122
  20   2.0000      -0.603151       -16.4126
  21   2.0000      -0.577419       -15.7124
  22   2.0000      -0.576201       -15.6792
  23   2.0000      -0.564077       -15.3493
  24   2.0000      -0.529956       -14.4208
  25   2.0000      -0.522663       -14.2224
  26   2.0000      -0.519165       -14.1272
  27   2.0000      -0.509470       -13.8634
  28   2.0000      -0.503498       -13.7009
  29   2.0000      -0.490556       -13.3487
  30   0.0000       0.089892         2.4461
  31   0.0000       0.129539         3.5249
  32   0.0000       0.139419         3.7938
  33   0.0000       0.144933         3.9438
  34   0.0000       0.164961         4.4888

MULLIKEN ATOMIC CHARGES
-----------------------
   0 O :   -0.756874
   1 H :    0.353999
   2 H :    0.380015
   3 O :   -0.708255
   4 H :    0.358266
   5 H :    0.379431
   6 O :   -0.691962
   7 H :    0.312524
   8 H :    0.367154
   9 O :   -0.703631
  10 H :    0.348131
  11 H :    0.383252
  12 O :   -0.746971
  13 H :    0.345190
  14 H :    0.379484
  15 O :   -0.676647
  16 H :    0.336423
  17 H :    0.340472
Sum of atomic charges:   -0.0000000

LOEWDIN ATOMIC CHARGES
----------------------
   0 O :   -0.315045
   1 H :    0.160680
   2 H :    0.145163
   3 O :   -0.282191
   4 H :    0.173042
   5 H :    0.154047
   6 O :   -0.345980
   7 H :    0.158427
   8 H :    0.147786
   9 O :   -0.279480
  10 H :    0.167377
  11 H :    0.156326
  12 O :   -0.342635
  13 H :    0.157481
  14 H :    0.144848
  15 O :   -0.332900
  16 H :    0.164912
  17 H :    0.168143

  Mayer bond orders larger than 0.100000
B(  0-O ,  1-H ) :   0.8384 B(  0-O ,  2-H ) :   0.7350 B(  2-H ,  9-O ) :   0.1121
B(  3-O ,  4-H ) :   0.8360 B(  3-O ,  5-H ) :   0.7896 B(  3-O , 14-H ) :   0.1099
B(  6-O ,  7-H ) :   0.8632 B(  6-O ,  8-H ) :   0.8158 B(  9-O , 10-H ) :   0.8425
B(  9-O , 11-H ) :   0.7760 B( 12-O , 13-H ) :   0.8461 B( 12-O , 14-H ) :   0.7484
B( 15-O , 16-H ) :   0.8536 B( 15-O , 17-H ) :   0.8511

MP2 TOTAL ENERGY:     -457.931399395 Eh
FINAL SINGLE POINT ENERGY      -457.931399394777

DIPOLE MOMENT
-------------
                                X             Y             Z
Electronic contribution:     -0.02811      -0.02645       0.00806
Nuclear contribution   :     -0.11171      -0.00057      -1.35336
                        -----------------------------------------
Total Dipole Moment    :     -0.13982      -0.02703      -1.34530
                        -----------------------------------------
Magnitude (a.u.)       :      1.35281
Magnitude (Debye)      :      3.43858

Rotational constants in cm-1:     0.044353     0.024872     0.021172
Rotational constants in MHz :  1329.677767   745.637504   634.707312

                             ****ORCA TERMINATED NORMALLY****
TOTAL RUN TIME: 0 days 0 hours 0 minutes 55 seconds 120 msec
