                         Program Version 4.2.0 -  RELEASE  -
|  1> # 12h2o.su.etal.mol0,2,6,7,8,9
|  2> ! MP2 def2-TZVP EnGrad TightSCF
|  3>
|  4> %pal
|  5>     nprocs 6
|  6> end
|  7>
|  8> %maxcore 8000
|  9>
| 10> %scf
| 11>     ConvForced true
| 12> end
| 13>
| 14> *xyz 0 1
| 15> O   1.794470000   0.923410000   2.768350000
| 16> H   2.338250000   1.359750000   3.430940000
| 17> H   0.879480000   1.303000000   2.865760000
| 18> O   0.923410000  -1.794470000  -2.768350000
| 19> H   1.359750000  -2.338250000  -3.430940000
| 20> H   1.303000000  -0.879480000  -2.865760000
| 21> O   1.737840000   0.885520000  -0.052730000
| 22> H   2.090180000   1.032320000   0.841890000
| 23> H   0.839590000   1.284090000  -0.017130000
| 24> O  -1.737840000  -0.885520000  -0.052730000
| 25> H  -2.090180000  -1.032320000   0.841890000
| 26> H  -0.839590000  -1.284090000  -0.017130000
| 27> O   1.752130000   0.741530000  -2.896280000
| 28> H   2.036450000   0.920500000  -1.984040000
| 29> H   0.921210000   1.242140000  -2.984230000
| 30> O   0.741530000  -1.752130000   2.896280000
| 31> H   0.920500000  -2.036450000   1.984040000
| 32> H   1.242140000  -0.921210000   2.984230000
| 33> *
| 34>
| 35>                          ****END OF INPUT****

CARTESIAN COORDINATES (ANGSTROEM)
---------------------------------
  O      1.794470    0.923410    2.768350
  H      2.338250    1.359750    3.430940
  H      0.879480    1.303000    2.865760
  O      0.923410   -1.794470   -2.768350
  H      1.359750   -2.338250   -3.430940
  H      1.303000   -0.879480   -2.865760
  O      1.737840    0.885520   -0.052730
  H      2.090180    1.032320    0.841890
  H      0.839590    1.284090   -0.017130
  O     -1.737840   -0.885520   -0.052730
  H     -2.090180   -1.032320    0.841890
  H     -0.839590   -1.284090   -0.017130
  O      1.752130    0.741530   -2.896280
  H      2.036450    0.920500   -1.984040
  H      0.921210    1.242140   -2.984230
  O      0.741530   -1.752130    2.896280
  H      0.920500   -2.036450    1.984040
  H      1.242140   -0.921210    2.984230

 Total Charge           Charge          ....    0
 Multiplicity           Mult            ....    1
 Number of Electrons    NEL             ....   60
 Basis Dimension        Dim             ....  258

ORBITAL ENERGIES
----------------

  NO   OCC          E(Eh)            E(eV)
   0   2.0000     -20.631486      -561.4113
   1   2.0000     -20.578622      -559.9728
   2   2.0000     -20.563407      -559.5587
   3   2.0000     -20.553231      -559.2819
   4   2.0000     -20.549080      -559.1689
   5   2.0000     -20.503974      -557.9415
   6   2.0000      -1.411663       -38.4133
   7   2.0000      -1.362058       -37.0635
   8   2.0000      -1.349315       -36.7167
   9   2.0000      -1.331429       -36.2300
  10   2.0000      -1.328941       -36.1623
  11   2.0000      -1.285973       -34.9931
  12   2.0000      -0.777271       -21.1506
  13   2.0000      -0.731946       -19.9173
  14   2.0000      -0.710449       -19.3323
  15   2.0000      -0.702955       -19.1284
  16   2.0000      -0.690533       -18.7904
  17   2.0000      -0.674190       -18.3456
  18   2.0000      -0.649610       -17.6768
  19   2.0000      -0.614328       -16.7167
  20   2.0000      -0.590651       -16.0724
  21   2.0000      -0.572737       -15.5850
  22   2.0000      -0.568813       -15.4782
  23   2.0000      -0.555169       -15.1069
  24   2.0000      -0.535530       -14.5725
  25   2.0000      -0.525110       -14.2890
  26   2.0000      -0.497254       -13.5310
  27   2.0000      -0.494975       -13.4690
  28   2.0000      -0.491702       -13.3799
  29   2.0000      -0.454440       -12.3659
  30   0.0000       0.075075         2.0429
  31   0.0000       0.120006         3.2655
  32   0.0000       0.141600         3.8531
  33   0.0000       0.151998         4.1361
  34   0.0000       0.182334         4.9616

MULLIKEN ATOMIC CHARGES
-----------------------
   0 O :   -0.715165
   1 H :    0.369973
   2 H :    0.369978
   3 O :   -0.734115
   4 H :    0.320064
   5 H :    0.369343
   6 O :   -0.711387
   7 H :    0.375321
   8 H :    0.336166
   9 O :   -0.685031
  10 H :    0.334098
  11 H :    0.347300
  12 O :   -0.694297
  13 H :    0.384978
  14 H :    0.343635
  15 O :   -0.701684
  16 H :    0.335670
  17 H :    0.355152
Sum of atomic charges:   -0.0000000

LOEWDIN ATOMIC CHARGES
----------------------
   0 O :   -0.286617
   1 H :    0.170660
   2 H :    0.191892
   3 O :   -0.373888
   4 H :    0.146507
   5 H :    0.142730
   6 O :   -0.322642
   7 H :    0.152995
   8 H :    0.168354
   9 O :   -0.337623
  10 H :    0.162617
  11 H :    0.171671
  12 O :   -0.278070
  13 H :    0.158290
  14 H :    0.169159
  15 O :   -0.342776
  16 H :    0.161183
  17 H :    0.145557

  Mayer bond orders larger than 0.100000
B(  0-O ,  1-H ) :   0.8287 B(  0-O ,  2-H ) :   0.8212 B(  3-O ,  4-H ) :   0.8629
B(  3-O ,  5-H ) :   0.7793 B(  6-O ,  7-H ) :   0.8101 B(  6-O ,  8-H ) :   0.8428
B(  9-O , 10-H ) :   0.8529 B(  9-O , 11-H ) :   0.8382 B( 12-O , 13-H ) :   0.8007
B( 12-O , 14-H ) :   0.8457 B( 15-O , 16-H ) :   0.8520 B( 15-O , 17-H ) :   0.8266

MP2 TOTAL ENERGY:     -457.910982522 Eh
FINAL SINGLE POINT ENERGY      -457.910982522471

DIPOLE MOMENT
-------------
                                X             Y             Z
Electronic contribution:      0.14515       0.11879       0.13746
Nuclear contribution   :      0.48085       2.00875       1.54856
                        -----------------------------------------
Total Dipole Moment    :      0.62601       2.12754       1.68602
                        -----------------------------------------
Magnitude (a.u.)       :      2.78585
Magnitude (Debye)      :      7.08107

Rotational constants in cm-1:     0.051695     0.025491     0.020354
Rotational constants in MHz :  1549.773319   764.199671   610.210813

                             ****ORCA TERMINATED NORMALLY****
TOTAL RUN TIME: 0 days 0 hours 0 minutes 51 seconds 516 msec
