                         Program Version 4.2.0 -  RELEASE  -
|  1> # 12h2o.su.etal.mol0,1,3,5,6,9
|  2> ! MP2 def2-TZVP EnGrad TightSCF
|  3>
|  4> %pal
|  5>     nprocs 6
|  6> end
|  7>
|  8> %maxcore 8000
|  9>
| 10> %scf
| 11>     ConvForced true
| 12> end
| 13>
| 14> *xyz 0 1
| 15> O   1.794470000   0.923410000   2.768350000
| 16> H   2.338250000   1.359750000   3.430940000
| 17> H   0.879480000   1.303000000   2.865760000
| 18> O  -1.794470000  -0.923410000   2.768350000
| 19> H  -2.338250000  -1.359750000   3.430940000
| 20> H  -0.879480000  -1.303000000   2.865760000
| 21> O  -1.752130000  -0.741530000  -2.896280000
| 22> H  -2.036450000  -0.920500000  -1.984040000
| 23> H  -0.921210000  -1.242140000  -2.984230000
| 24> O   0.885520000  -1.737840000   0.052730000
| 25> H   1.284090000  -0.839590000   0.017130000
| 26> H   1.032320000  -2.090180000  -0.841890000
| 27> O   1.737840000   0.885520000  -0.052730000
| 28> H   2.090180000   1.032320000   0.841890000
| 29> H   0.839590000   1.284090000  -0.017130000
| 30> O   0.741530000  -1.752130000   2.896280000
| 31> H   0.920500000  -2.036450000   1.984040000
| 32> H   1.242140000  -0.921210000   2.984230000
| 33> *
| 34>
| 35>                          ****END OF INPUT****

CARTESIAN COORDINATES (ANGSTROEM)
---------------------------------
  O      1.794470    0.923410    2.768350
  H      2.338250    1.359750    3.430940
  H      0.879480    1.303000    2.865760
  O     -1.794470   -0.923410    2.768350
  H     -2.338250   -1.359750    3.430940
  H     -0.879480   -1.303000    2.865760
  O     -1.752130   -0.741530   -2.896280
  H     -2.036450   -0.920500   -1.984040
  H     -0.921210   -1.242140   -2.984230
  O      0.885520   -1.737840    0.052730
  H      1.284090   -0.839590    0.017130
  H      1.032320   -2.090180   -0.841890
  O      1.737840    0.885520   -0.052730
  H      2.090180    1.032320    0.841890
  H      0.839590    1.284090   -0.017130
  O      0.741530   -1.752130    2.896280
  H      0.920500   -2.036450    1.984040
  H      1.242140   -0.921210    2.984230

 Total Charge           Charge          ....    0
 Multiplicity           Mult            ....    1
 Number of Electrons    NEL             ....   60
 Basis Dimension        Dim             ....  258

ORBITAL ENERGIES
----------------

  NO   OCC          E(Eh)            E(eV)
   0   2.0000     -20.627484      -561.3024
   1   2.0000     -20.583932      -560.1173
   2   2.0000     -20.556619      -559.3740
   3   2.0000     -20.555978      -559.3566
   4   2.0000     -20.545925      -559.0830
   5   2.0000     -20.510725      -558.1252
   6   2.0000      -1.408099       -38.3163
   7   2.0000      -1.368369       -37.2352
   8   2.0000      -1.343184       -36.5499
   9   2.0000      -1.335780       -36.3484
  10   2.0000      -1.332840       -36.2684
  11   2.0000      -1.292134       -35.1608
  12   2.0000      -0.773321       -21.0431
  13   2.0000      -0.731513       -19.9055
  14   2.0000      -0.714558       -19.4441
  15   2.0000      -0.704259       -19.1639
  16   2.0000      -0.698594       -19.0097
  17   2.0000      -0.678567       -18.4648
  18   2.0000      -0.650273       -17.6948
  19   2.0000      -0.610011       -16.5992
  20   2.0000      -0.604667       -16.4538
  21   2.0000      -0.573602       -15.6085
  22   2.0000      -0.568369       -15.4661
  23   2.0000      -0.560498       -15.2519
  24   2.0000      -0.533335       -14.5128
  25   2.0000      -0.522177       -14.2092
  26   2.0000      -0.505170       -13.7464
  27   2.0000      -0.500539       -13.6204
  28   2.0000      -0.484166       -13.1748
  29   2.0000      -0.461632       -12.5616
  30   0.0000       0.082956         2.2573
  31   0.0000       0.109495         2.9795
  32   0.0000       0.146574         3.9885
  33   0.0000       0.169117         4.6019
  34   0.0000       0.178394         4.8544

MULLIKEN ATOMIC CHARGES
-----------------------
   0 O :   -0.724976
   1 H :    0.370410
   2 H :    0.378704
   3 O :   -0.745630
   4 H :    0.322964
   5 H :    0.369467
   6 O :   -0.677186
   7 H :    0.347139
   8 H :    0.328705
   9 O :   -0.723836
  10 H :    0.359238
  11 H :    0.332452
  12 O :   -0.694062
  13 H :    0.378456
  14 H :    0.351244
  15 O :   -0.714775
  16 H :    0.386651
  17 H :    0.355036
Sum of atomic charges:   -0.0000000

LOEWDIN ATOMIC CHARGES
----------------------
   0 O :   -0.288477
   1 H :    0.170891
   2 H :    0.195167
   3 O :   -0.379989
   4 H :    0.147078
   5 H :    0.141347
   6 O :   -0.331999
   7 H :    0.168722
   8 H :    0.161895
   9 O :   -0.339307
  10 H :    0.144331
  11 H :    0.160177
  12 O :   -0.295059
  13 H :    0.152469
  14 H :    0.176553
  15 O :   -0.287163
  16 H :    0.158489
  17 H :    0.144875

  Mayer bond orders larger than 0.100000
B(  0-O ,  1-H ) :   0.8285 B(  0-O ,  2-H ) :   0.8130 B(  3-O ,  4-H ) :   0.8617
B(  3-O ,  5-H ) :   0.7689 B(  5-H , 15-O ) :   0.1032 B(  6-O ,  7-H ) :   0.8464
B(  6-O ,  8-H ) :   0.8573 B(  9-O , 10-H ) :   0.7745 B(  9-O , 11-H ) :   0.8522
B( 12-O , 13-H ) :   0.8067 B( 12-O , 14-H ) :   0.8386 B( 15-O , 16-H ) :   0.7999
B( 15-O , 17-H ) :   0.8225

MP2 TOTAL ENERGY:     -457.921323861 Eh
FINAL SINGLE POINT ENERGY      -457.921323861081

DIPOLE MOMENT
-------------
                                X             Y             Z
Electronic contribution:      0.32200       0.19593      -0.17532
Nuclear contribution   :      1.02017       0.79765       1.26519
                        -----------------------------------------
Total Dipole Moment    :      1.34217       0.99358       1.08987
                        -----------------------------------------
Magnitude (a.u.)       :      1.99410
Magnitude (Debye)      :      5.06860

Rotational constants in cm-1:     0.049777     0.027428     0.021782
Rotational constants in MHz :  1492.284569   822.271393   652.993586

                             ****ORCA TERMINATED NORMALLY****
TOTAL RUN TIME: 0 days 0 hours 1 minutes 1 seconds 486 msec
