                         Program Version 4.2.0 -  RELEASE  -
|  1> # 12h2o.su.etal.mol4,5,6,8,10
|  2> ! MP2 def2-TZVP EnGrad TightSCF
|  3>
|  4> %pal
|  5>     nprocs 6
|  6> end
|  7>
|  8> %maxcore 8000
|  9>
| 10> %scf
| 11>     ConvForced true
| 12> end
| 13>
| 14> *xyz 0 1
| 15> O  -0.885520000   1.737840000   0.052730000
| 16> H  -1.032320000   2.090180000  -0.841890000
| 17> H  -1.284090000   0.839590000   0.017130000
| 18> O   0.885520000  -1.737840000   0.052730000
| 19> H   1.284090000  -0.839590000   0.017130000
| 20> H   1.032320000  -2.090180000  -0.841890000
| 21> O   1.737840000   0.885520000  -0.052730000
| 22> H   2.090180000   1.032320000   0.841890000
| 23> H   0.839590000   1.284090000  -0.017130000
| 24> O   1.752130000   0.741530000  -2.896280000
| 25> H   2.036450000   0.920500000  -1.984040000
| 26> H   0.921210000   1.242140000  -2.984230000
| 27> O  -0.923410000   1.794470000  -2.768350000
| 28> H  -1.359750000   2.338250000  -3.430940000
| 29> H  -1.303000000   0.879480000  -2.865760000
| 30> *
| 31>
| 32>                          ****END OF INPUT****

CARTESIAN COORDINATES (ANGSTROEM)
---------------------------------
  O     -0.885520    1.737840    0.052730
  H     -1.032320    2.090180   -0.841890
  H     -1.284090    0.839590    0.017130
  O      0.885520   -1.737840    0.052730
  H      1.284090   -0.839590    0.017130
  H      1.032320   -2.090180   -0.841890
  O      1.737840    0.885520   -0.052730
  H      2.090180    1.032320    0.841890
  H      0.839590    1.284090   -0.017130
  O      1.752130    0.741530   -2.896280
  H      2.036450    0.920500   -1.984040
  H      0.921210    1.242140   -2.984230
  O     -0.923410    1.794470   -2.768350
  H     -1.359750    2.338250   -3.430940
  H     -1.303000    0.879480   -2.865760

 Total Charge           Charge          ....    0
 Multiplicity           Mult            ....    1
 Number of Electrons    NEL             ....   50
 Basis Dimension        Dim             ....  215

ORBITAL ENERGIES
----------------

  NO   OCC          E(Eh)            E(eV)
   0   2.0000     -20.626195      -561.2673
   1   2.0000     -20.585139      -560.1501
   2   2.0000     -20.571647      -559.7830
   3   2.0000     -20.523877      -558.4831
   4   2.0000     -20.519053      -558.3518
   5   2.0000      -1.406742       -38.2794
   6   2.0000      -1.372530       -37.3484
   7   2.0000      -1.355754       -36.8919
   8   2.0000      -1.305050       -35.5122
   9   2.0000      -1.303888       -35.4806
  10   2.0000      -0.772074       -21.0092
  11   2.0000      -0.732428       -19.9304
  12   2.0000      -0.726915       -19.7804
  13   2.0000      -0.686018       -18.6675
  14   2.0000      -0.679444       -18.4886
  15   2.0000      -0.648781       -17.6542
  16   2.0000      -0.612076       -16.6554
  17   2.0000      -0.605786       -16.4843
  18   2.0000      -0.566887       -15.4258
  19   2.0000      -0.556455       -15.1419
  20   2.0000      -0.534387       -14.5414
  21   2.0000      -0.523846       -14.2546
  22   2.0000      -0.507383       -13.8066
  23   2.0000      -0.472632       -12.8610
  24   2.0000      -0.468325       -12.7438
  25   0.0000       0.082476         2.2443
  26   0.0000       0.133257         3.6261
  27   0.0000       0.153864         4.1868
  28   0.0000       0.177505         4.8302
  29   0.0000       0.188766         5.1366

MULLIKEN ATOMIC CHARGES
-----------------------
   0 O :   -0.698020
   1 H :    0.379741
   2 H :    0.352118
   3 O :   -0.725021
   4 H :    0.355649
   5 H :    0.331635
   6 O :   -0.733389
   7 H :    0.356712
   8 H :    0.370059
   9 O :   -0.721064
  10 H :    0.369101
  11 H :    0.339278
  12 O :   -0.717351
  13 H :    0.369651
  14 H :    0.370902
Sum of atomic charges:    0.0000000

LOEWDIN ATOMIC CHARGES
----------------------
   0 O :   -0.294071
   1 H :    0.152939
   2 H :    0.175706
   3 O :   -0.365549
   4 H :    0.139348
   5 H :    0.158804
   6 O :   -0.296156
   7 H :    0.170453
   8 H :    0.146371
   9 O :   -0.351354
  10 H :    0.149705
  11 H :    0.138890
  12 O :   -0.287670
  13 H :    0.170305
  14 H :    0.192279

  Mayer bond orders larger than 0.100000
B(  0-O ,  1-H ) :   0.8050 B(  0-O ,  2-H ) :   0.8350 B(  3-O ,  4-H ) :   0.7969
B(  3-O ,  5-H ) :   0.8553 B(  6-O ,  7-H ) :   0.8360 B(  6-O ,  8-H ) :   0.7616
B(  9-O , 10-H ) :   0.8226 B(  9-O , 11-H ) :   0.8392 B( 12-O , 13-H ) :   0.8288
B( 12-O , 14-H ) :   0.8201

MP2 TOTAL ENERGY:     -381.604405742 Eh
FINAL SINGLE POINT ENERGY      -381.604405741921

DIPOLE MOMENT
-------------
                                X             Y             Z
Electronic contribution:     -0.07226       0.30574       0.06191
Nuclear contribution   :     -1.58851       0.71062      -0.72077
                        -----------------------------------------
Total Dipole Moment    :     -1.66077       1.01636      -0.65885
                        -----------------------------------------
Magnitude (a.u.)       :      2.05554
Magnitude (Debye)      :      5.22476

Rotational constants in cm-1:     0.080164     0.053977     0.042827
Rotational constants in MHz :  2403.267961  1618.192310  1283.923107

                             ****ORCA TERMINATED NORMALLY****
TOTAL RUN TIME: 0 days 0 hours 0 minutes 40 seconds 73 msec
