                         Program Version 3.0.3 - RELEASE   -
|  1> ! BP86 Def2-SVP TightSCF Opt D3BJ COSMO
|  2>
|  3> %pal nprocs 12 end
|  4>
|  5> %scf
|  6>         maxiter 800
|  7> end
|  8>
|  9> %cosmo
| 10> 	SMD true
| 11>         solvent "WATER"
| 12> end
| 13>
| 14> * xyz  0  1
| 15> O  1.32880670	-0.89893396	2.87560564
| 16> H  2.10972646	-0.64900648	2.38171048
| 17> H  0.81627071	-1.42671702	2.26324647
| 18> O  -1.53235310	0.52868083	1.03213357
| 19> H  -1.20851099	0.91353915	1.84653041
| 20> H  -1.11117710	-0.32975814	0.98825705
| 21> O  1.79221574	2.42311059	1.32643218
| 22> H  1.25942902	2.44040168	0.53140314
| 23> H  1.16730669	2.24937153	2.03037484
| 24> O  0.08108972	1.75350161	-0.78202355
| 25> H  -0.37705262	1.71271278	-1.62147201
| 26> H  -0.54958584	1.41289326	-0.14762135
| 27> O  -0.15677604	-1.79046275	0.68012474
| 28> H  0.51134475	-1.43156761	0.09613781
| 29> H  -0.75281947	-2.26449446	0.10024715
| 30> O  3.26314240	0.17130827	1.18718101
| 31> H  2.83739601	1.02648946	1.24748848
| 32> H  4.19426067	0.35775464	1.30754866
| 33> O  1.60803620	-0.49171954	-0.93023310
| 34> H  1.14941653	0.34843349	-0.93676904
| 35> H  2.33838306	-0.36175580	-0.32530770
| 36> O  -0.06367654	-1.38411915	-2.98715194
| 37> H  0.69458489	-1.17335700	-2.44231180
| 38> H  -0.47240307	-0.53755138	-3.16742250
| 39> O  -3.05734594	-0.14005788	-1.21488651
| 40> H  -2.77028443	0.15967226	-0.35233832
| 41> H  -2.80462932	-1.06281438	-1.24466229
| 42> O  -1.42086693	1.04400723	-2.99633395
| 43> H  -2.08711180	0.66962872	-2.41997439
| 44> H  -1.91904338	1.50323883	-3.67246885
| 45> O  -1.82060393	-2.62700645	-1.36787278
| 46> H  -2.09866696	-3.46532298	-1.73684189
| 47> H  -1.20226449	-2.27602305	-2.00873067
| 48> O  -0.02167060	1.41169077	3.17702492
| 49> H  0.45198096	0.57990444	3.18121551
| 50> H  -0.17654671	1.60432874	4.10176048
| 51> **                         ****END OF INPUT****
 Total Charge           Charge          ....    0
 Multiplicity           Mult            ....    1
 Number of Electrons    NEL             ....  120
Dispersion correction           -0.038745393
FINAL SINGLE POINT ENERGY      -916.688562120298
Dispersion correction            ...
Dispersion correction           -0.038169248
FINAL SINGLE POINT ENERGY      -916.699472199859
Dispersion correction            ...
Dispersion correction           -0.038300722
FINAL SINGLE POINT ENERGY      -916.706164409415
Dispersion correction            ...
FINAL SINGLE POINT ENERGY      -916.708950180264
FINAL SINGLE POINT ENERGY      -916.710980805964
FINAL SINGLE POINT ENERGY      -916.723513772361
FINAL SINGLE POINT ENERGY      -916.713831642940
FINAL SINGLE POINT ENERGY      -916.714601347825
FINAL SINGLE POINT ENERGY      -916.714999732747
FINAL SINGLE POINT ENERGY      -916.715190768649
FINAL SINGLE POINT ENERGY      -916.717597817173
FINAL SINGLE POINT ENERGY      -916.717656925208
FINAL SINGLE POINT ENERGY      -916.717687510870
FINAL SINGLE POINT ENERGY      -916.717718509948
FINAL SINGLE POINT ENERGY      -916.717742919461
FINAL SINGLE POINT ENERGY      -916.717773156334
FINAL SINGLE POINT ENERGY      -916.717786147408
Dispersion correction            ...
Dispersion correction           -0.041210976
FINAL SINGLE POINT ENERGY      -916.717798499351
Dispersion correction            ...
Dispersion correction           -0.041241945
FINAL SINGLE POINT ENERGY      -916.717803220066
Dispersion correction            ...
                    ***********************HURRAY********************

CARTESIAN COORDINATES (ANGSTROEM)
---------------------------------
  O      1.298577   -0.971910    2.896841
  H      2.057231   -0.638709    2.329770
  H      0.740971   -1.462002    2.234015
  O     -1.519307    0.516761    0.961792
  H     -1.164106    0.909849    1.816778
  H     -1.038366   -0.378700    0.925294
  O      1.806466    2.482295    1.280102
  H      1.256354    2.444585    0.452164
  H      1.147159    2.196604    1.981909
  O      0.118393    1.721761   -0.733472
  H     -0.376412    1.674974   -1.606972
  H     -0.556446    1.323677   -0.083864
  O     -0.139283   -1.728456    0.704773
  H      0.539833   -1.328321    0.061480
  H     -0.760299   -2.214712    0.080089
  O      3.022482    0.175720    1.155277
  H      2.642115    1.129566    1.213905
  H      3.987717    0.267767    1.280608
  O      1.538215   -0.502566   -0.936513
  H      1.050280    0.390036   -0.901725
  H      2.305648   -0.352140   -0.305809
  O      0.000535   -1.413499   -3.004272
  H      0.751448   -1.191429   -2.390662
  H     -0.462420   -0.527920   -3.099750
  O     -3.106105   -0.101441   -1.163707
  H     -2.744259    0.218091   -0.293665
  H     -2.742741   -1.035770   -1.212501
  O     -1.342204    0.921150   -2.795437
  H     -2.113175    0.567578   -2.213007
  H     -1.766879    1.410955   -3.527118
  O     -1.717062   -2.413070   -1.312919
  H     -2.038413   -3.291109   -1.597310
  H     -1.049853   -2.110814   -2.035860
  O      0.038831    1.313258    2.945680
  H      0.521937    0.409669    3.037836
  H     -0.186860    1.588271    3.856250

 Multiplicity           Mult            ....    1
 Number of Electrons    NEL             ....  120
 Basis Dimension        Dim             ....  288

ORBITAL ENERGIES
----------------

  NO   OCC          E(Eh)            E(eV)
   0   2.0000     -18.782234      -511.0906
   1   2.0000     -18.782039      -511.0853
   2   2.0000     -18.781976      -511.0836
   3   2.0000     -18.781629      -511.0741
   4   2.0000     -18.770142      -510.7615
   5   2.0000     -18.769999      -510.7576
   6   2.0000     -18.769917      -510.7554
   7   2.0000     -18.769704      -510.7496
   8   2.0000     -18.767297      -510.6841
   9   2.0000     -18.766964      -510.6751
  10   2.0000     -18.766950      -510.6747
  11   2.0000     -18.766404      -510.6598
  12   2.0000      -0.926103       -25.2005
  13   2.0000      -0.916065       -24.9274
  14   2.0000      -0.907593       -24.6969
  15   2.0000      -0.907507       -24.6945
  16   2.0000      -0.902776       -24.5658
  17   2.0000      -0.894591       -24.3431
  18   2.0000      -0.894536       -24.3416
  19   2.0000      -0.884479       -24.0679
  20   2.0000      -0.881818       -23.9955
  21   2.0000      -0.881781       -23.9945
  22   2.0000      -0.876923       -23.8623
  23   2.0000      -0.862406       -23.4673
  24   2.0000      -0.480842       -13.0844
  25   2.0000      -0.476134       -12.9563
  26   2.0000      -0.475139       -12.9292
  27   2.0000      -0.474955       -12.9242
  28   2.0000      -0.469717       -12.7816
  29   2.0000      -0.463502       -12.6125
  30   2.0000      -0.463374       -12.6090
  31   2.0000      -0.462679       -12.5901
  32   2.0000      -0.456478       -12.4214
  33   2.0000      -0.450618       -12.2619
  34   2.0000      -0.448346       -12.2001
  35   2.0000      -0.448223       -12.1968
  36   2.0000      -0.401182       -10.9167
  37   2.0000      -0.379790       -10.3346
  38   2.0000      -0.366977        -9.9860
  39   2.0000      -0.366807        -9.9813
  40   2.0000      -0.347092        -9.4449
  41   2.0000      -0.345680        -9.4064
  42   2.0000      -0.345362        -9.3978
  43   2.0000      -0.345197        -9.3933
  44   2.0000      -0.320857        -8.7310
  45   2.0000      -0.320701        -8.7267
  46   2.0000      -0.313529        -8.5316
  47   2.0000      -0.290464        -7.9039
  48   2.0000      -0.266408        -7.2493
  49   2.0000      -0.266357        -7.2479
  50   2.0000      -0.265814        -7.2332
  51   2.0000      -0.265599        -7.2273
  52   2.0000      -0.262440        -7.1414
  53   2.0000      -0.262339        -7.1386
  54   2.0000      -0.262294        -7.1374
  55   2.0000      -0.256189        -6.9713
  56   2.0000      -0.254280        -6.9193
  57   2.0000      -0.254239        -6.9182
  58   2.0000      -0.252461        -6.8698
  59   2.0000      -0.252091        -6.8597
  60   0.0000       0.017895         0.4870
  61   0.0000       0.046881         1.2757
  62   0.0000       0.062658         1.7050
  63   0.0000       0.063392         1.7250
  64   0.0000       0.098953         2.6927

MULLIKEN ATOMIC CHARGES
-----------------------
   0 O :   -0.354895
   1 H :    0.159407
   2 H :    0.170567
   3 O :   -0.347615
   4 H :    0.177593
   5 H :    0.133727
   6 O :   -0.354748
   7 H :    0.171344
   8 H :    0.161320
   9 O :   -0.346126
  10 H :    0.174870
  11 H :    0.138249
  12 O :   -0.344286
  13 H :    0.133588
  14 H :    0.174001
  15 O :   -0.330325
  16 H :    0.162309
  17 H :    0.227178
  18 O :   -0.342377
  19 H :    0.132861
  20 H :    0.173493
  21 O :   -0.354798
  22 H :    0.171054
  23 H :    0.159300
  24 O :   -0.357779
  25 H :    0.172399
  26 H :    0.162116
  27 O :   -0.331780
  28 H :    0.164307
  29 H :    0.227429
  30 O :   -0.333432
  31 H :    0.228004
  32 H :    0.164225
  33 O :   -0.334339
  34 H :    0.164991
  35 H :    0.228169
Sum of atomic charges:   -0.0000000

LOEWDIN ATOMIC CHARGES
----------------------
   0 O :   -0.128620
   1 H :    0.041309
   2 H :    0.050570
   3 O :   -0.111305
   4 H :    0.045180
   5 H :    0.027430
   6 O :   -0.128230
   7 H :    0.051635
   8 H :    0.040719
   9 O :   -0.111379
  10 H :    0.044827
  11 H :    0.028116
  12 O :   -0.111683
  13 H :    0.026740
  14 H :    0.044152
  15 O :   -0.079276
  16 H :    0.037748
  17 H :    0.115343
  18 O :   -0.110043
  19 H :    0.026926
  20 H :    0.044543
  21 O :   -0.127616
  22 H :    0.051022
  23 H :    0.041011
  24 O :   -0.129504
  25 H :    0.050624
  26 H :    0.041450
  27 O :   -0.078733
  28 H :    0.038524
  29 H :    0.115510
  30 O :   -0.078275
  31 H :    0.115650
  32 H :    0.037965
  33 O :   -0.076609
  34 H :    0.038494
  35 H :    0.115781

  Mayer bond orders larger than 0.1
B(  0-O ,  1-H ) :   0.8840 B(  0-O ,  2-H ) :   0.9116 B(  0-O , 34-H ) :   0.2780
B(  1-H , 15-O ) :   0.2000 B(  2-H , 12-O ) :   0.1541 B(  3-O ,  4-H ) :   0.8643
B(  3-O ,  5-H ) :   0.8267 B(  3-O , 11-H ) :   0.2570 B(  3-O , 25-H ) :   0.1530
B(  4-H , 33-O ) :   0.2006 B(  5-H , 12-O ) :   0.2601 B(  6-O ,  7-H ) :   0.9135
B(  6-O ,  8-H ) :   0.8842 B(  6-O , 16-H ) :   0.2758 B(  7-H ,  9-O ) :   0.1501
B(  8-H , 33-O ) :   0.1992 B(  9-O , 10-H ) :   0.8665 B(  9-O , 11-H ) :   0.8273
B(  9-O , 19-H ) :   0.2590 B( 10-H , 27-O ) :   0.2007 B( 12-O , 13-H ) :   0.8266
B( 12-O , 14-H ) :   0.8634 B( 13-H , 18-O ) :   0.2594 B( 14-H , 30-O ) :   0.2045
B( 15-O , 16-H ) :   0.8016 B( 15-O , 17-H ) :   0.9557 B( 15-O , 20-H ) :   0.2024
B( 18-O , 19-H ) :   0.8259 B( 18-O , 20-H ) :   0.8658 B( 18-O , 22-H ) :   0.1542
B( 21-O , 22-H ) :   0.9112 B( 21-O , 23-H ) :   0.8830 B( 21-O , 32-H ) :   0.2775
B( 23-H , 27-O ) :   0.2011 B( 24-O , 25-H ) :   0.9112 B( 24-O , 26-H ) :   0.8854
B( 24-O , 28-H ) :   0.2749 B( 26-H , 30-O ) :   0.1967 B( 27-O , 28-H ) :   0.8020
B( 27-O , 29-H ) :   0.9548 B( 30-O , 31-H ) :   0.9547 B( 30-O , 32-H ) :   0.8003
B( 33-O , 34-H ) :   0.8000 B( 33-O , 35-H ) :   0.9547

Dispersion correction           -0.041257557
FINAL SINGLE POINT ENERGY      -916.717821586515

DIPOLE MOMENT
-------------
                                X             Y             Z
Electronic contribution:     -0.00077       0.00522       0.00671
Nuclear contribution   :      0.00116      -0.00001       0.00463
                        -----------------------------------------
Total Dipole Moment    :      0.00038       0.00522       0.01135
                        -----------------------------------------
Magnitude (a.u.)       :      0.01249
Magnitude (Debye)      :      0.03175

                             ****ORCA TERMINATED NORMALLY****
TOTAL RUN TIME: 0 days 0 hours 28 minutes 56 seconds 151 msec
