                         Program Version 3.0.3 - RELEASE   -
|  1> ! BP86 Def2-SVP TightSCF Opt D3BJ
|  2>
|  3> %pal nprocs 12 end
|  4>
|  5> %scf
|  6>         maxiter 800
|  7> end
|  8>
|  9> * xyz  0  1
| 10> O  1.32880670	-0.89893396	2.87560564
| 11> H  2.10972646	-0.64900648	2.38171048
| 12> H  0.81627071	-1.42671702	2.26324647
| 13> O  -1.53235310	0.52868083	1.03213357
| 14> H  -1.20851099	0.91353915	1.84653041
| 15> H  -1.11117710	-0.32975814	0.98825705
| 16> O  1.79221574	2.42311059	1.32643218
| 17> H  1.25942902	2.44040168	0.53140314
| 18> H  1.16730669	2.24937153	2.03037484
| 19> O  0.08108972	1.75350161	-0.78202355
| 20> H  -0.37705262	1.71271278	-1.62147201
| 21> H  -0.54958584	1.41289326	-0.14762135
| 22> O  -0.15677604	-1.79046275	0.68012474
| 23> H  0.51134475	-1.43156761	0.09613781
| 24> H  -0.75281947	-2.26449446	0.10024715
| 25> O  3.26314240	0.17130827	1.18718101
| 26> H  2.83739601	1.02648946	1.24748848
| 27> H  4.19426067	0.35775464	1.30754866
| 28> O  1.60803620	-0.49171954	-0.93023310
| 29> H  1.14941653	0.34843349	-0.93676904
| 30> H  2.33838306	-0.36175580	-0.32530770
| 31> O  -0.06367654	-1.38411915	-2.98715194
| 32> H  0.69458489	-1.17335700	-2.44231180
| 33> H  -0.47240307	-0.53755138	-3.16742250
| 34> O  -3.05734594	-0.14005788	-1.21488651
| 35> H  -2.77028443	0.15967226	-0.35233832
| 36> H  -2.80462932	-1.06281438	-1.24466229
| 37> O  -1.42086693	1.04400723	-2.99633395
| 38> H  -2.08711180	0.66962872	-2.41997439
| 39> H  -1.91904338	1.50323883	-3.67246885
| 40> O  -1.82060393	-2.62700645	-1.36787278
| 41> H  -2.09866696	-3.46532298	-1.73684189
| 42> H  -1.20226449	-2.27602305	-2.00873067
| 43> O  -0.02167060	1.41169077	3.17702492
| 44> H  0.45198096	0.57990444	3.18121551
| 45> H  -0.17654671	1.60432874	4.10176048
| 46> **                         ****END OF INPUT****
 Total Charge           Charge          ....    0
 Multiplicity           Mult            ....    1
 Number of Electrons    NEL             ....  120
Dispersion correction           -0.038745393
FINAL SINGLE POINT ENERGY      -916.644833892184
Dispersion correction            ...
Dispersion correction           -0.038174168
FINAL SINGLE POINT ENERGY      -916.666392563961
Dispersion correction            ...
Dispersion correction           -0.038251070
FINAL SINGLE POINT ENERGY      -916.673331868135
Dispersion correction            ...
FINAL SINGLE POINT ENERGY      -916.676580200025
FINAL SINGLE POINT ENERGY      -916.679144450019
FINAL SINGLE POINT ENERGY      -916.681266742798
FINAL SINGLE POINT ENERGY      -916.682910363177
FINAL SINGLE POINT ENERGY      -916.684070658253
FINAL SINGLE POINT ENERGY      -916.684781649642
FINAL SINGLE POINT ENERGY      -916.685103493387
FINAL SINGLE POINT ENERGY      -916.687282762159
FINAL SINGLE POINT ENERGY      -916.687325449676
FINAL SINGLE POINT ENERGY      -916.687342948489
FINAL SINGLE POINT ENERGY      -916.687356374155
FINAL SINGLE POINT ENERGY      -916.687373928682
FINAL SINGLE POINT ENERGY      -916.687392474367
FINAL SINGLE POINT ENERGY      -916.687407835324
Dispersion correction            ...
Dispersion correction           -0.041290290
FINAL SINGLE POINT ENERGY      -916.687418616722
Dispersion correction            ...
Dispersion correction           -0.041293531
FINAL SINGLE POINT ENERGY      -916.687428795343
Dispersion correction            ...
                    ***********************HURRAY********************

CARTESIAN COORDINATES (ANGSTROEM)
---------------------------------
  O      1.264084   -0.922640    2.891796
  H      2.048024   -0.639550    2.339353
  H      0.723683   -1.452641    2.243587
  O     -1.524059    0.523355    0.947581
  H     -1.202197    0.913812    1.811475
  H     -1.044811   -0.372633    0.924077
  O      1.827947    2.429301    1.266997
  H      1.273708    2.431015    0.439269
  H      1.158234    2.202099    1.974248
  O      0.134514    1.717916   -0.731728
  H     -0.358883    1.705134   -1.602731
  H     -0.550151    1.328751   -0.088389
  O     -0.141392   -1.720781    0.719260
  H      0.538618   -1.333790    0.069534
  H     -0.748949   -2.237351    0.113409
  O      3.040303    0.182587    1.141602
  H      2.620999    1.142066    1.199833
  H      3.999610    0.299993    1.269419
  O      1.531449   -0.516695   -0.938388
  H      1.055335    0.381627   -0.905351
  H      2.315158   -0.370565   -0.333317
  O     -0.027516   -1.429012   -2.961643
  H      0.750496   -1.207566   -2.380457
  H     -0.457752   -0.537071   -3.097641
  O     -3.064212   -0.079199   -1.192293
  H     -2.740875    0.234307   -0.303603
  H     -2.748616   -1.027502   -1.215841
  O     -1.357532    0.945955   -2.795544
  H     -2.118984    0.563652   -2.183205
  H     -1.806462    1.424982   -3.515987
  O     -1.704758   -2.437330   -1.315464
  H     -2.019248   -3.304906   -1.628530
  H     -1.023567   -2.097056   -2.036442
  O      0.019969    1.308122    2.966349
  H      0.520773    0.388027    3.023824
  H     -0.182937    1.563588    3.884943

 Multiplicity           Mult            ....    1
 Number of Electrons    NEL             ....  120
 Basis Dimension        Dim             ....  288

ORBITAL ENERGIES
----------------

  NO   OCC          E(Eh)            E(eV)
   0   2.0000     -18.787717      -511.2398
   1   2.0000     -18.787452      -511.2326
   2   2.0000     -18.787230      -511.2265
   3   2.0000     -18.787158      -511.2246
   4   2.0000     -18.770316      -510.7663
   5   2.0000     -18.770202      -510.7632
   6   2.0000     -18.770010      -510.7579
   7   2.0000     -18.769907      -510.7551
   8   2.0000     -18.766804      -510.6707
   9   2.0000     -18.766403      -510.6598
  10   2.0000     -18.766194      -510.6541
  11   2.0000     -18.766179      -510.6537
  12   2.0000      -0.928963       -25.2784
  13   2.0000      -0.920656       -25.0523
  14   2.0000      -0.911854       -24.8128
  15   2.0000      -0.911686       -24.8082
  16   2.0000      -0.905640       -24.6437
  17   2.0000      -0.896864       -24.4049
  18   2.0000      -0.896773       -24.4024
  19   2.0000      -0.886095       -24.1119
  20   2.0000      -0.883287       -24.0355
  21   2.0000      -0.883140       -24.0315
  22   2.0000      -0.879007       -23.9190
  23   2.0000      -0.864218       -23.5166
  24   2.0000      -0.488373       -13.2893
  25   2.0000      -0.484273       -13.1778
  26   2.0000      -0.483833       -13.1658
  27   2.0000      -0.483653       -13.1609
  28   2.0000      -0.471054       -12.8180
  29   2.0000      -0.466634       -12.6978
  30   2.0000      -0.466558       -12.6957
  31   2.0000      -0.465984       -12.6801
  32   2.0000      -0.458505       -12.4766
  33   2.0000      -0.452795       -12.3212
  34   2.0000      -0.449257       -12.2249
  35   2.0000      -0.449060       -12.2195
  36   2.0000      -0.403673       -10.9845
  37   2.0000      -0.384912       -10.4740
  38   2.0000      -0.367449        -9.9988
  39   2.0000      -0.367306        -9.9949
  40   2.0000      -0.348489        -9.4829
  41   2.0000      -0.347193        -9.4476
  42   2.0000      -0.347117        -9.4455
  43   2.0000      -0.344077        -9.3628
  44   2.0000      -0.320536        -8.7222
  45   2.0000      -0.320340        -8.7169
  46   2.0000      -0.311097        -8.4654
  47   2.0000      -0.287074        -7.8117
  48   2.0000      -0.271239        -7.3808
  49   2.0000      -0.271028        -7.3751
  50   2.0000      -0.269697        -7.3388
  51   2.0000      -0.268120        -7.2959
  52   2.0000      -0.263307        -7.1650
  53   2.0000      -0.260016        -7.0754
  54   2.0000      -0.259917        -7.0727
  55   2.0000      -0.253077        -6.8866
  56   2.0000      -0.251397        -6.8409
  57   2.0000      -0.251191        -6.8353
  58   2.0000      -0.250979        -6.8295
  59   2.0000      -0.250609        -6.8194
  60   0.0000       0.006322         0.1720
  61   0.0000       0.026160         0.7119
  62   0.0000       0.037840         1.0297
  63   0.0000       0.038313         1.0426
  64   0.0000       0.081631         2.2213

MULLIKEN ATOMIC CHARGES
-----------------------
   0 O :   -0.305445
   1 H :    0.149024
   2 H :    0.171716
   3 O :   -0.327159
   4 H :    0.168144
   5 H :    0.128751
   6 O :   -0.304307
   7 H :    0.172280
   8 H :    0.150571
   9 O :   -0.326673
  10 H :    0.166698
  11 H :    0.133499
  12 O :   -0.324710
  13 H :    0.129515
  14 H :    0.165822
  15 O :   -0.339385
  16 H :    0.167389
  17 H :    0.184775
  18 O :   -0.323956
  19 H :    0.128607
  20 H :    0.165535
  21 O :   -0.305799
  22 H :    0.172330
  23 H :    0.148297
  24 O :   -0.307029
  25 H :    0.173303
  26 H :    0.151509
  27 O :   -0.340901
  28 H :    0.169500
  29 H :    0.184438
  30 O :   -0.342111
  31 H :    0.185210
  32 H :    0.169196
  33 O :   -0.344274
  34 H :    0.170509
  35 H :    0.185131
Sum of atomic charges:   -0.0000000

LOEWDIN ATOMIC CHARGES
----------------------
   0 O :   -0.078883
   1 H :    0.041106
   2 H :    0.053243
   3 O :   -0.096394
   4 H :    0.043279
   5 H :    0.025068
   6 O :   -0.078270
   7 H :    0.054125
   8 H :    0.041129
   9 O :   -0.096662
  10 H :    0.043222
  11 H :    0.025928
  12 O :   -0.096672
  13 H :    0.024799
  14 H :    0.042769
  15 O :   -0.103946
  16 H :    0.029911
  17 H :    0.086055
  18 O :   -0.095970
  19 H :    0.024701
  20 H :    0.042792
  21 O :   -0.078962
  22 H :    0.053610
  23 H :    0.040779
  24 O :   -0.079125
  25 H :    0.053328
  26 H :    0.041561
  27 O :   -0.104362
  28 H :    0.030464
  29 H :    0.085919
  30 O :   -0.103701
  31 H :    0.086191
  32 H :    0.030353
  33 O :   -0.103902
  34 H :    0.030413
  35 H :    0.086102

  Mayer bond orders larger than 0.1
B(  0-O ,  1-H ) :   0.8970 B(  0-O ,  2-H ) :   0.9103 B(  0-O , 34-H ) :   0.3102
B(  1-H , 15-O ) :   0.1896 B(  2-H , 12-O ) :   0.1529 B(  3-O ,  4-H ) :   0.8780
B(  3-O ,  5-H ) :   0.8283 B(  3-O , 11-H ) :   0.2579 B(  3-O , 25-H ) :   0.1512
B(  4-H , 33-O ) :   0.1911 B(  5-H , 12-O ) :   0.2613 B(  6-O ,  7-H ) :   0.9120
B(  6-O ,  8-H ) :   0.8980 B(  6-O , 16-H ) :   0.3086 B(  7-H ,  9-O ) :   0.1492
B(  8-H , 33-O ) :   0.1880 B(  9-O , 10-H ) :   0.8784 B(  9-O , 11-H ) :   0.8289
B(  9-O , 19-H ) :   0.2600 B( 10-H , 27-O ) :   0.1918 B( 12-O , 13-H ) :   0.8276
B( 12-O , 14-H ) :   0.8770 B( 13-H , 18-O ) :   0.2607 B( 14-H , 30-O ) :   0.1938
B( 15-O , 16-H ) :   0.7640 B( 15-O , 17-H ) :   0.9763 B( 15-O , 20-H ) :   0.1937
B( 18-O , 19-H ) :   0.8271 B( 18-O , 20-H ) :   0.8776 B( 18-O , 22-H ) :   0.1529
B( 21-O , 22-H ) :   0.9100 B( 21-O , 23-H ) :   0.8969 B( 21-O , 32-H ) :   0.3085
B( 23-H , 27-O ) :   0.1903 B( 24-O , 25-H ) :   0.9103 B( 24-O , 26-H ) :   0.8990
B( 24-O , 28-H ) :   0.3078 B( 26-H , 30-O ) :   0.1860 B( 27-O , 28-H ) :   0.7644
B( 27-O , 29-H ) :   0.9755 B( 30-O , 31-H ) :   0.9755 B( 30-O , 32-H ) :   0.7646
B( 33-O , 34-H ) :   0.7626 B( 33-O , 35-H ) :   0.9756

Dispersion correction           -0.041292470
FINAL SINGLE POINT ENERGY      -916.687441774920

DIPOLE MOMENT
-------------
                                X             Y             Z
Electronic contribution:     -0.00013       0.00530       0.00486
Nuclear contribution   :      0.00301      -0.00394       0.00368
                        -----------------------------------------
Total Dipole Moment    :      0.00287       0.00136       0.00855
                        -----------------------------------------
Magnitude (a.u.)       :      0.00912
Magnitude (Debye)      :      0.02318

                             ****ORCA TERMINATED NORMALLY****
TOTAL RUN TIME: 0 days 0 hours 26 minutes 28 seconds 446 msec
