                         Program Version 4.2.0 -  RELEASE  -
|  1> # 12h2o.su.etal.mol3,7,8,9,10
|  2> ! MP2 def2-TZVP EnGrad TightSCF
|  3>
|  4> %pal
|  5>     nprocs 6
|  6> end
|  7>
|  8> %maxcore 8000
|  9>
| 10> %scf
| 11>     ConvForced true
| 12> end
| 13>
| 14> *xyz 0 1
| 15> O  -1.752130000  -0.741530000  -2.896280000
| 16> H  -2.036450000  -0.920500000  -1.984040000
| 17> H  -0.921210000  -1.242140000  -2.984230000
| 18> O  -1.737840000  -0.885520000  -0.052730000
| 19> H  -2.090180000  -1.032320000   0.841890000
| 20> H  -0.839590000  -1.284090000  -0.017130000
| 21> O   1.752130000   0.741530000  -2.896280000
| 22> H   2.036450000   0.920500000  -1.984040000
| 23> H   0.921210000   1.242140000  -2.984230000
| 24> O   0.741530000  -1.752130000   2.896280000
| 25> H   0.920500000  -2.036450000   1.984040000
| 26> H   1.242140000  -0.921210000   2.984230000
| 27> O  -0.923410000   1.794470000  -2.768350000
| 28> H  -1.359750000   2.338250000  -3.430940000
| 29> H  -1.303000000   0.879480000  -2.865760000
| 30> *
| 31>
| 32>                          ****END OF INPUT****

CARTESIAN COORDINATES (ANGSTROEM)
---------------------------------
  O     -1.752130   -0.741530   -2.896280
  H     -2.036450   -0.920500   -1.984040
  H     -0.921210   -1.242140   -2.984230
  O     -1.737840   -0.885520   -0.052730
  H     -2.090180   -1.032320    0.841890
  H     -0.839590   -1.284090   -0.017130
  O      1.752130    0.741530   -2.896280
  H      2.036450    0.920500   -1.984040
  H      0.921210    1.242140   -2.984230
  O      0.741530   -1.752130    2.896280
  H      0.920500   -2.036450    1.984040
  H      1.242140   -0.921210    2.984230
  O     -0.923410    1.794470   -2.768350
  H     -1.359750    2.338250   -3.430940
  H     -1.303000    0.879480   -2.865760

 Total Charge           Charge          ....    0
 Multiplicity           Mult            ....    1
 Number of Electrons    NEL             ....   50
 Basis Dimension        Dim             ....  215

ORBITAL ENERGIES
----------------

  NO   OCC          E(Eh)            E(eV)
   0   2.0000     -20.600576      -560.5702
   1   2.0000     -20.585780      -560.1675
   2   2.0000     -20.574782      -559.8683
   3   2.0000     -20.536053      -558.8144
   4   2.0000     -20.530676      -558.6681
   5   2.0000      -1.379968       -37.5508
   6   2.0000      -1.364736       -37.1363
   7   2.0000      -1.362383       -37.0723
   8   2.0000      -1.322163       -35.9779
   9   2.0000      -1.310236       -35.6533
  10   2.0000      -0.743502       -20.2317
  11   2.0000      -0.727624       -19.7997
  12   2.0000      -0.722128       -19.6501
  13   2.0000      -0.704430       -19.1685
  14   2.0000      -0.680174       -18.5085
  15   2.0000      -0.628622       -17.1057
  16   2.0000      -0.601809       -16.3760
  17   2.0000      -0.598526       -16.2867
  18   2.0000      -0.569894       -15.5076
  19   2.0000      -0.546807       -14.8794
  20   2.0000      -0.543918       -14.8008
  21   2.0000      -0.529178       -14.3997
  22   2.0000      -0.509691       -13.8694
  23   2.0000      -0.485934       -13.2229
  24   2.0000      -0.477784       -13.0012
  25   0.0000       0.073907         2.0111
  26   0.0000       0.128041         3.4842
  27   0.0000       0.147963         4.0263
  28   0.0000       0.161471         4.3938
  29   0.0000       0.175703         4.7811

MULLIKEN ATOMIC CHARGES
-----------------------
   0 O :   -0.698969
   1 H :    0.387437
   2 H :    0.349540
   3 O :   -0.690528
   4 H :    0.363141
   5 H :    0.334205
   6 O :   -0.714864
   7 H :    0.322149
   8 H :    0.363913
   9 O :   -0.668534
  10 H :    0.326849
  11 H :    0.345448
  12 O :   -0.739258
  13 H :    0.336299
  14 H :    0.383174
Sum of atomic charges:    0.0000000

LOEWDIN ATOMIC CHARGES
----------------------
   0 O :   -0.274977
   1 H :    0.160068
   2 H :    0.170224
   3 O :   -0.314427
   4 H :    0.176440
   5 H :    0.169576
   6 O :   -0.353306
   7 H :    0.156498
   8 H :    0.147861
   9 O :   -0.327060
  10 H :    0.159180
  11 H :    0.170736
  12 O :   -0.340139
  13 H :    0.153438
  14 H :    0.145889

  Mayer bond orders larger than 0.100000
B(  0-O ,  1-H ) :   0.8013 B(  0-O ,  2-H ) :   0.8390 B(  3-O ,  4-H ) :   0.8346
B(  3-O ,  5-H ) :   0.8456 B(  6-O ,  7-H ) :   0.8619 B(  6-O ,  8-H ) :   0.8007
B(  9-O , 10-H ) :   0.8576 B(  9-O , 11-H ) :   0.8478 B( 12-O , 13-H ) :   0.8511
B( 12-O , 14-H ) :   0.7584

MP2 TOTAL ENERGY:     -381.593924346 Eh
FINAL SINGLE POINT ENERGY      -381.593924345638

DIPOLE MOMENT
-------------
                                X             Y             Z
Electronic contribution:     -0.40050      -0.17560       0.11172
Nuclear contribution   :      0.34090      -0.30796       0.82779
                        -----------------------------------------
Total Dipole Moment    :     -0.05960      -0.48355       0.93951
                        -----------------------------------------
Magnitude (a.u.)       :      1.05833
Magnitude (Debye)      :      2.69006

Rotational constants in cm-1:     0.074018     0.027593     0.022519
Rotational constants in MHz :  2219.015022   827.226992   675.099100

                             ****ORCA TERMINATED NORMALLY****
TOTAL RUN TIME: 0 days 0 hours 0 minutes 28 seconds 177 msec
