                         Program Version 4.2.0 -  RELEASE  -
|  1> ! MP2 def2-TZVP EnGrad TightSCF FrozenCore
|  2>
|  3> %pal
|  4>     nprocs 12
|  5> end
|  6>
|  7> %maxcore 8000
|  8>
|  9> %scf
| 10>     ConvForced true
| 11> end
| 12>
| 13> *xyz 0 1
| 14> O    -1.0485311345    -0.9248969644    -1.7666786001
| 15> H    -0.1899808463    -1.3152110482    -1.4509700233
| 16> C    -0.7315379784     0.1527274646    -2.6353057004
| 17> H    -1.6712463717     0.6161319944    -2.9502639674
| 18> H    -0.2045294594    -0.1966720853    -3.5341855942
| 19> H    -0.1116328498     0.9193502415    -2.1459763693
| 20> O    -2.1634159129     0.030131976      0.498317319
| 21> H    -1.8018997194    -0.3692139475    -0.3367096123
| 22> C    -3.5498344397     0.2792336964     0.3395204222
| 23> H    -3.9266570807     0.6815288496     1.2845292402
| 24> H    -4.1006463922    -0.6441653035     0.113647188
| 25> H    -3.7581441628     1.0115861518    -0.4556662641
| 26> O     1.9450110183     0.0331228753     1.1550782258
| 27> H     1.1653434782     0.6352550011     1.2884294703
| 28> C     2.2491943196    -0.5604341312     2.411410334
| 29> H     3.1075348381    -1.2230548841     2.2671026024
| 30> H     1.4125510788    -1.153977475      2.8065065476
| 31> H     2.5193688389     0.2006793819     3.1556661127
| 32> O     1.3375937771    -1.724168014     -0.7978746185
| 33> H     1.5567924843    -1.0931954334    -0.0604893453
| 34> C     2.47778433      -1.8480866249    -1.6338001641
| 35> H     2.2219641913    -2.5330389931    -2.447650208
| 36> H     3.3328245825    -2.2692762308    -1.0867345849
| 37> H     2.7864536736    -0.8863810634    -2.0698422089
| 38> O    -0.2391758424     1.5653869549     1.5790416276
| 39> H    -1.0077519334     1.0281999501     1.2528695467
| 40> C    -0.2944383526     2.8398619074     0.9566990781
| 41> H     0.5885533616     3.4031239966     1.2716936502
| 42> H    -1.1887032533     3.3993920554     1.2655258074
| 43> H    -0.2890569757     2.7725103463    -0.1416974369
| 44> *
| 45>
| 46>                          ****END OF INPUT****

CARTESIAN COORDINATES (ANGSTROEM)
---------------------------------
  O     -1.048531   -0.924897   -1.766679
  H     -0.189981   -1.315211   -1.450970
  C     -0.731538    0.152727   -2.635306
  H     -1.671246    0.616132   -2.950264
  H     -0.204529   -0.196672   -3.534186
  H     -0.111633    0.919350   -2.145976
  O     -2.163416    0.030132    0.498317
  H     -1.801900   -0.369214   -0.336710
  C     -3.549834    0.279234    0.339520
  H     -3.926657    0.681529    1.284529
  H     -4.100646   -0.644165    0.113647
  H     -3.758144    1.011586   -0.455666
  O      1.945011    0.033123    1.155078
  H      1.165343    0.635255    1.288429
  C      2.249194   -0.560434    2.411410
  H      3.107535   -1.223055    2.267103
  H      1.412551   -1.153977    2.806507
  H      2.519369    0.200679    3.155666
  O      1.337594   -1.724168   -0.797875
  H      1.556792   -1.093195   -0.060489
  C      2.477784   -1.848087   -1.633800
  H      2.221964   -2.533039   -2.447650
  H      3.332825   -2.269276   -1.086735
  H      2.786454   -0.886381   -2.069842
  O     -0.239176    1.565387    1.579042
  H     -1.007752    1.028200    1.252870
  C     -0.294438    2.839862    0.956699
  H      0.588553    3.403124    1.271694
  H     -1.188703    3.399392    1.265526
  H     -0.289057    2.772510   -0.141697

 Total Charge           Charge          ....    0
 Multiplicity           Mult            ....    1
 Number of Electrons    NEL             ....   90
 Basis Dimension        Dim             ....  430

ORBITAL ENERGIES
----------------

  NO   OCC          E(Eh)            E(eV)
   0   2.0000     -20.549488      -559.1800
   1   2.0000     -20.549469      -559.1795
   2   2.0000     -20.548456      -559.1519
   3   2.0000     -20.547248      -559.1190
   4   2.0000     -20.546688      -559.1038
   5   2.0000     -11.272607      -306.7432
   6   2.0000     -11.271643      -306.7170
   7   2.0000     -11.270483      -306.6854
   8   2.0000     -11.268767      -306.6387
   9   2.0000     -11.265856      -306.5595
  10   2.0000      -1.366399       -37.1816
  11   2.0000      -1.355616       -36.8882
  12   2.0000      -1.354343       -36.8535
  13   2.0000      -1.337342       -36.3909
  14   2.0000      -1.335371       -36.3373
  15   2.0000      -0.927514       -25.2389
  16   2.0000      -0.923197       -25.1215
  17   2.0000      -0.920015       -25.0349
  18   2.0000      -0.915040       -24.8995
  19   2.0000      -0.912643       -24.8343
  20   2.0000      -0.714172       -19.4336
  21   2.0000      -0.713838       -19.4245
  22   2.0000      -0.687461       -18.7068
  23   2.0000      -0.686113       -18.6701
  24   2.0000      -0.677850       -18.4452
  25   2.0000      -0.619132       -16.8474
  26   2.0000      -0.615672       -16.7533
  27   2.0000      -0.613546       -16.6954
  28   2.0000      -0.613231       -16.6869
  29   2.0000      -0.610118       -16.6022
  30   2.0000      -0.597516       -16.2592
  31   2.0000      -0.595253       -16.1976
  32   2.0000      -0.588278       -16.0079
  33   2.0000      -0.586494       -15.9593
  34   2.0000      -0.584908       -15.9162
  35   2.0000      -0.522276       -14.2118
  36   2.0000      -0.519581       -14.1385
  37   2.0000      -0.496993       -13.5239
  38   2.0000      -0.494132       -13.4460
  39   2.0000      -0.480667       -13.0796
  40   2.0000      -0.446667       -12.1544
  41   2.0000      -0.445588       -12.1251
  42   2.0000      -0.445372       -12.1192
  43   2.0000      -0.443154       -12.0588
  44   2.0000      -0.442072       -12.0294
  45   0.0000       0.124372         3.3843
  46   0.0000       0.145240         3.9522
  47   0.0000       0.156840         4.2678
  48   0.0000       0.164897         4.4871
  49   0.0000       0.180791         4.9196

MULLIKEN ATOMIC CHARGES
-----------------------
   0 O :   -0.551689
   1 H :    0.384357
   2 C :   -0.200019
   3 H :    0.130839
   4 H :    0.124061
   5 H :    0.114787
   6 O :   -0.566608
   7 H :    0.372135
   8 C :   -0.169607
   9 H :    0.128137
  10 H :    0.127090
  11 H :    0.107954
  12 O :   -0.564402
  13 H :    0.368108
  14 C :   -0.170926
  15 H :    0.123794
  16 H :    0.125072
  17 H :    0.120755
  18 O :   -0.568268
  19 H :    0.368174
  20 C :   -0.171820
  21 H :    0.128168
  22 H :    0.119868
  23 H :    0.116253
  24 O :   -0.558948
  25 H :    0.379956
  26 C :   -0.177170
  27 H :    0.132714
  28 H :    0.121781
  29 H :    0.105456
Sum of atomic charges:   -0.0000000

LOEWDIN ATOMIC CHARGES
----------------------
   0 O :   -0.084613
   1 H :    0.167577
   2 C :   -0.394009
   3 H :    0.108463
   4 H :    0.103023
   5 H :    0.096681
   6 O :   -0.087835
   7 H :    0.165560
   8 C :   -0.385367
   9 H :    0.108973
  10 H :    0.104807
  11 H :    0.096139
  12 O :   -0.091690
  13 H :    0.165698
  14 C :   -0.384771
  15 H :    0.107398
  16 H :    0.101564
  17 H :    0.103601
  18 O :   -0.087949
  19 H :    0.165317
  20 C :   -0.388129
  21 H :    0.108627
  22 H :    0.102909
  23 H :    0.098177
  24 O :   -0.084306
  25 H :    0.166048
  26 C :   -0.389473
  27 H :    0.109897
  28 H :    0.102638
  29 H :    0.095045

  Mayer bond orders larger than 0.100000
B(  0-O ,  1-H ) :   0.7454 B(  0-O ,  2-C ) :   0.8911 B(  0-O ,  7-H ) :   0.1179
B(  1-H , 18-O ) :   0.1017 B(  2-C ,  3-H ) :   0.9422 B(  2-C ,  4-H ) :   0.9402
B(  2-C ,  5-H ) :   0.9353 B(  6-O ,  7-H ) :   0.7390 B(  6-O ,  8-C ) :   0.8909
B(  6-O , 25-H ) :   0.1034 B(  8-C ,  9-H ) :   0.9424 B(  8-C , 10-H ) :   0.9409
B(  8-C , 11-H ) :   0.9357 B( 12-O , 13-H ) :   0.7410 B( 12-O , 14-C ) :   0.8843
B( 12-O , 19-H ) :   0.1284 B( 13-H , 24-O ) :   0.1264 B( 14-C , 15-H ) :   0.9409
B( 14-C , 16-H ) :   0.9403 B( 14-C , 17-H ) :   0.9387 B( 18-O , 19-H ) :   0.7335
B( 18-O , 20-C ) :   0.8881 B( 20-C , 21-H ) :   0.9418 B( 20-C , 22-H ) :   0.9379
B( 20-C , 23-H ) :   0.9403 B( 24-O , 25-H ) :   0.7436 B( 24-O , 26-C ) :   0.8892
B( 26-C , 27-H ) :   0.9433 B( 26-C , 28-H ) :   0.9411 B( 26-C , 29-H ) :   0.9342

MP2 TOTAL ENERGY:     -577.607054647 Eh
FINAL SINGLE POINT ENERGY      -577.607054647318

DIPOLE MOMENT
-------------
                                X             Y             Z
Electronic contribution:     -0.41416      -2.47872       1.66568
Nuclear contribution   :      0.46261       3.13079      -2.07175
                        -----------------------------------------
Total Dipole Moment    :      0.04845       0.65207      -0.40607
                        -----------------------------------------
Magnitude (a.u.)       :      0.76970
Magnitude (Debye)      :      1.95642

Rotational constants in cm-1:     0.026948     0.021712     0.014828
Rotational constants in MHz :   807.867715   650.904663   444.534927

                             ****ORCA TERMINATED NORMALLY****
TOTAL RUN TIME: 0 days 0 hours 6 minutes 11 seconds 433 msec
