                         Program Version 4.2.0 -  RELEASE  -
|  1> # 12meoh.boyd.etal.mol8,9
|  2> ! MP2 def2-TZVP EnGrad TightSCF
|  3>
|  4> %pal
|  5>     nprocs 6
|  6> end
|  7>
|  8> %maxcore 8000
|  9>
| 10> %scf
| 11>     ConvForced true
| 12> end
| 13>
| 14> *xyz 0 1
| 15> O   3.570084754   2.361662577  -0.202416728
| 16> H   3.393280933   1.755669977   0.560634073
| 17> C   4.368082883   1.644741793  -1.143112807
| 18> H   4.552851717   2.311801738  -1.989632421
| 19> H   3.862427494   0.740851663  -1.508095690
| 20> H   5.333949674   1.357289092  -0.706288100
| 21> O   1.390610024   3.194080770  -1.536658882
| 22> H   2.162932299   2.881562730  -0.993525056
| 23> C   1.202977189   4.580367182  -1.302880219
| 24> H   0.374773115   4.915764831  -1.934164643
| 25> H   2.098649340   5.157710875  -1.570472348
| 26> H   0.950320401   4.800436015  -0.254328827
| 27> *
| 28>
| 29>                          ****END OF INPUT****

CARTESIAN COORDINATES (ANGSTROEM)
---------------------------------
  O      3.570085    2.361663   -0.202417
  H      3.393281    1.755670    0.560634
  C      4.368083    1.644742   -1.143113
  H      4.552852    2.311802   -1.989632
  H      3.862427    0.740852   -1.508096
  H      5.333950    1.357289   -0.706288
  O      1.390610    3.194081   -1.536659
  H      2.162932    2.881563   -0.993525
  C      1.202977    4.580367   -1.302880
  H      0.374773    4.915765   -1.934165
  H      2.098649    5.157711   -1.570472
  H      0.950320    4.800436   -0.254329

 Total Charge           Charge          ....    0
 Multiplicity           Mult            ....    1
 Number of Electrons    NEL             ....   36
 Basis Dimension        Dim             ....  172

ORBITAL ENERGIES
----------------

  NO   OCC          E(Eh)            E(eV)
   0   2.0000     -20.590057      -560.2839
   1   2.0000     -20.513970      -558.2135
   2   2.0000     -11.289336      -307.1984
   3   2.0000     -11.247899      -306.0709
   4   2.0000      -1.383665       -37.6514
   5   2.0000      -1.312098       -35.7040
   6   2.0000      -0.941257       -25.6129
   7   2.0000      -0.894779       -24.3482
   8   2.0000      -0.717625       -19.5276
   9   2.0000      -0.672483       -18.2992
  10   2.0000      -0.632384       -17.2080
  11   2.0000      -0.609825       -16.5942
  12   2.0000      -0.589673       -16.0458
  13   2.0000      -0.562218       -15.2987
  14   2.0000      -0.529224       -14.4009
  15   2.0000      -0.488193       -13.2844
  16   2.0000      -0.455494       -12.3946
  17   2.0000      -0.416039       -11.3210
  18   0.0000       0.119377         3.2484
  19   0.0000       0.163591         4.4515
  20   0.0000       0.171905         4.6778
  21   0.0000       0.212362         5.7787
  22   0.0000       0.215625         5.8675

MULLIKEN ATOMIC CHARGES
-----------------------
   0 O :   -0.514226
   1 H :    0.340931
   2 C :   -0.193278
   3 H :    0.145886
   4 H :    0.133232
   5 H :    0.125261
   6 O :   -0.535330
   7 H :    0.343295
   8 C :   -0.156551
   9 H :    0.118834
  10 H :    0.096003
  11 H :    0.095945
Sum of atomic charges:   -0.0000000

LOEWDIN ATOMIC CHARGES
----------------------
   0 O :   -0.077285
   1 H :    0.196600
   2 C :   -0.371070
   3 H :    0.117112
   4 H :    0.103997
   5 H :    0.103302
   6 O :   -0.121999
   7 H :    0.157713
   8 C :   -0.396502
   9 H :    0.105182
  10 H :    0.091591
  11 H :    0.091360

  Mayer bond orders larger than 0.100000
B(  0-O ,  1-H ) :   0.8293 B(  0-O ,  2-C ) :   0.8675 B(  2-C ,  3-H ) :   0.9383
B(  2-C ,  4-H ) :   0.9398 B(  2-C ,  5-H ) :   0.9334 B(  6-O ,  7-H ) :   0.7882
B(  6-O ,  8-C ) :   0.9446 B(  8-C ,  9-H ) :   0.9409 B(  8-C , 10-H ) :   0.9365
B(  8-C , 11-H ) :   0.9424

MP2 TOTAL ENERGY:     -231.023314336 Eh
FINAL SINGLE POINT ENERGY      -231.023314336051

DIPOLE MOMENT
-------------
                                X             Y             Z
Electronic contribution:     -0.55454      -0.98129       0.78811
Nuclear contribution   :      1.50387       0.44656      -0.18161
                        -----------------------------------------
Total Dipole Moment    :      0.94933      -0.53473       0.60650
                        -----------------------------------------
Magnitude (a.u.)       :      1.24700
Magnitude (Debye)      :      3.16963

Rotational constants in cm-1:     0.598806     0.082295     0.078966
Rotational constants in MHz : 17951.763050  2467.146975  2367.329911

                             ****ORCA TERMINATED NORMALLY****
TOTAL RUN TIME: 0 days 0 hours 0 minutes 26 seconds 312 msec
