                         Program Version 4.2.0 -  RELEASE  -
|  1> # 12meoh.boyd.etal.mol6,8,11
|  2> ! MP2 def2-TZVP EnGrad TightSCF
|  3>
|  4> %pal
|  5>     nprocs 6
|  6> end
|  7>
|  8> %maxcore 8000
|  9>
| 10> %scf
| 11>     ConvForced true
| 12> end
| 13>
| 14> *xyz 0 1
| 15> O   2.622209273  -1.703002590  -1.445859723
| 16> H   1.828551432  -1.986513781  -0.909754968
| 17> C   2.781117675  -2.615822239  -2.525472890
| 18> H   3.691063626  -2.339003544  -3.065143454
| 19> H   1.934727323  -2.559520367  -3.223226661
| 20> H   2.879948338  -3.653846211  -2.177750170
| 21> O   3.570084754   2.361662577  -0.202416728
| 22> H   3.393280933   1.755669977   0.560634073
| 23> C   4.368082883   1.644741793  -1.143112807
| 24> H   4.552851717   2.311801738  -1.989632421
| 25> H   3.862427494   0.740851663  -1.508095690
| 26> H   5.333949674   1.357289092  -0.706288100
| 27> O   3.252955559   0.588596242   1.858934315
| 28> H   3.621209177  -0.251605199   1.476063364
| 29> C   4.040824528   0.944288422   2.989639460
| 30> H   3.670521436   1.902573549   3.363847391
| 31> H   5.103749934   1.055868619   2.734277559
| 32> H   3.948540682   0.200279590   3.792908518
| 33> *
| 34>
| 35>                          ****END OF INPUT****

CARTESIAN COORDINATES (ANGSTROEM)
---------------------------------
  O      2.622209   -1.703003   -1.445860
  H      1.828551   -1.986514   -0.909755
  C      2.781118   -2.615822   -2.525473
  H      3.691064   -2.339004   -3.065143
  H      1.934727   -2.559520   -3.223227
  H      2.879948   -3.653846   -2.177750
  O      3.570085    2.361663   -0.202417
  H      3.393281    1.755670    0.560634
  C      4.368083    1.644742   -1.143113
  H      4.552852    2.311802   -1.989632
  H      3.862427    0.740852   -1.508096
  H      5.333950    1.357289   -0.706288
  O      3.252956    0.588596    1.858934
  H      3.621209   -0.251605    1.476063
  C      4.040825    0.944288    2.989639
  H      3.670521    1.902574    3.363847
  H      5.103750    1.055869    2.734278
  H      3.948541    0.200280    3.792909

 Total Charge           Charge          ....    0
 Multiplicity           Mult            ....    1
 Number of Electrons    NEL             ....   54
 Basis Dimension        Dim             ....  258

ORBITAL ENERGIES
----------------

  NO   OCC          E(Eh)            E(eV)
   0   2.0000     -20.581722      -560.0571
   1   2.0000     -20.567288      -559.6644
   2   2.0000     -20.507735      -558.0438
   3   2.0000     -11.284097      -307.0559
   4   2.0000     -11.278437      -306.9019
   5   2.0000     -11.240794      -305.8776
   6   2.0000      -1.374581       -37.4042
   7   2.0000      -1.355257       -36.8784
   8   2.0000      -1.303875       -35.4802
   9   2.0000      -0.935427       -25.4543
  10   2.0000      -0.926658       -25.2157
  11   2.0000      -0.888462       -24.1763
  12   2.0000      -0.704897       -19.1812
  13   2.0000      -0.689725       -18.7684
  14   2.0000      -0.667373       -18.1601
  15   2.0000      -0.625341       -17.0164
  16   2.0000      -0.624605       -16.9964
  17   2.0000      -0.604952       -16.4616
  18   2.0000      -0.600413       -16.3381
  19   2.0000      -0.582168       -15.8416
  20   2.0000      -0.553468       -15.0606
  21   2.0000      -0.520120       -14.1532
  22   2.0000      -0.508281       -13.8310
  23   2.0000      -0.482040       -13.1170
  24   2.0000      -0.457583       -12.4515
  25   2.0000      -0.450182       -12.2501
  26   2.0000      -0.409843       -11.1524
  27   0.0000       0.114400         3.1130
  28   0.0000       0.137443         3.7400
  29   0.0000       0.160802         4.3756
  30   0.0000       0.179388         4.8814
  31   0.0000       0.190298         5.1783

MULLIKEN ATOMIC CHARGES
-----------------------
   0 O :   -0.497605
   1 H :    0.324065
   2 C :   -0.173982
   3 H :    0.131938
   4 H :    0.115102
   5 H :    0.110665
   6 O :   -0.528381
   7 H :    0.358012
   8 C :   -0.200090
   9 H :    0.118282
  10 H :    0.129367
  11 H :    0.086589
  12 O :   -0.519125
  13 H :    0.343517
  14 C :   -0.192104
  15 H :    0.145918
  16 H :    0.126438
  17 H :    0.121391
Sum of atomic charges:    0.0000000

LOEWDIN ATOMIC CHARGES
----------------------
   0 O :   -0.110075
   1 H :    0.193938
   2 C :   -0.380637
   3 H :    0.110996
   4 H :    0.097662
   5 H :    0.096321
   6 O :   -0.122591
   7 H :    0.159493
   8 C :   -0.398445
   9 H :    0.104962
  10 H :    0.096773
  11 H :    0.087117
  12 O :   -0.077326
  13 H :    0.197768
  14 C :   -0.375958
  15 H :    0.116352
  16 H :    0.101625
  17 H :    0.102027

  Mayer bond orders larger than 0.100000
B(  0-O ,  1-H ) :   0.8368 B(  0-O ,  2-C ) :   0.9167 B(  2-C ,  3-H ) :   0.9387
B(  2-C ,  4-H ) :   0.9381 B(  2-C ,  5-H ) :   0.9356 B(  6-O ,  7-H ) :   0.7983
B(  6-O ,  8-C ) :   0.9363 B(  8-C ,  9-H ) :   0.9410 B(  8-C , 10-H ) :   0.9365
B(  8-C , 11-H ) :   0.9361 B( 12-O , 13-H ) :   0.8247 B( 12-O , 14-C ) :   0.8802
B( 14-C , 15-H ) :   0.9395 B( 14-C , 16-H ) :   0.9369 B( 14-C , 17-H ) :   0.9349

MP2 TOTAL ENERGY:     -346.531842885 Eh
FINAL SINGLE POINT ENERGY      -346.531842885127

DIPOLE MOMENT
-------------
                                X             Y             Z
Electronic contribution:     -2.25574       1.70590       1.25398
Nuclear contribution   :      2.48651      -3.49175      -0.78853
                        -----------------------------------------
Total Dipole Moment    :      0.23077      -1.78585       0.46545
                        -----------------------------------------
Magnitude (a.u.)       :      1.85988
Magnitude (Debye)      :      4.72744

Rotational constants in cm-1:     0.090770     0.031052     0.024364
Rotational constants in MHz :  2721.203618   930.909195   730.407553

                             ****ORCA TERMINATED NORMALLY****
TOTAL RUN TIME: 0 days 0 hours 1 minutes 18 seconds 682 msec
