                         Program Version 4.2.0 -  RELEASE  -
|  1> # 12mecn.remya.etal.2.mol3,6,8
|  2> ! MP2 def2-TZVP EnGrad TightSCF
|  3>
|  4> %pal
|  5>     nprocs 6
|  6> end
|  7>
|  8> %maxcore 8000
|  9>
| 10> %scf
| 11>     ConvForced true
| 12> end
| 13>
| 14> *xyz 0 1
| 15> C  -5.181310000   2.853865000  -1.626100000
| 16> H  -5.488260000   3.811434000  -2.053310000
| 17> H  -5.857590000   2.068112000  -1.968630000
| 18> H  -4.170750000   2.611402000  -1.966640000
| 19> C  -5.187260000   2.919160000  -0.181450000
| 20> N  -5.181700000   2.970641000   0.983640000
| 21> C   5.300864000  -2.920090000   1.401103000
| 22> H   5.986071000  -2.139770000   1.737487000
| 23> H   5.636642000  -3.888750000   1.778233000
| 24> H   4.307359000  -2.697240000   1.799307000
| 25> C   5.234791000  -2.933140000  -0.043290000
| 26> N   5.170868000  -2.941760000  -1.207750000
| 27> C   1.912641000  -2.468050000  -1.750510000
| 28> H   2.876947000  -2.793500000  -2.151200000
| 29> H   1.688016000  -1.463720000  -2.122170000
| 30> H   1.123460000  -3.154780000  -2.069590000
| 31> C   1.977850000  -2.444240000  -0.306900000
| 32> N   2.036566000  -2.426130000   0.858249000
| 33> *
| 34>
| 35>                          ****END OF INPUT****

CARTESIAN COORDINATES (ANGSTROEM)
---------------------------------
  C     -5.181310    2.853865   -1.626100
  H     -5.488260    3.811434   -2.053310
  H     -5.857590    2.068112   -1.968630
  H     -4.170750    2.611402   -1.966640
  C     -5.187260    2.919160   -0.181450
  N     -5.181700    2.970641    0.983640
  C      5.300864   -2.920090    1.401103
  H      5.986071   -2.139770    1.737487
  H      5.636642   -3.888750    1.778233
  H      4.307359   -2.697240    1.799307
  C      5.234791   -2.933140   -0.043290
  N      5.170868   -2.941760   -1.207750
  C      1.912641   -2.468050   -1.750510
  H      2.876947   -2.793500   -2.151200
  H      1.688016   -1.463720   -2.122170
  H      1.123460   -3.154780   -2.069590
  C      1.977850   -2.444240   -0.306900
  N      2.036566   -2.426130    0.858249

 Total Charge           Charge          ....    0
 Multiplicity           Mult            ....    1
 Number of Electrons    NEL             ....   66
 Basis Dimension        Dim             ....  333

ORBITAL ENERGIES
----------------

  NO   OCC          E(Eh)            E(eV)
   0   2.0000     -15.573465      -423.7755
   1   2.0000     -15.571630      -423.7256
   2   2.0000     -15.571581      -423.7243
   3   2.0000     -11.285658      -307.0984
   4   2.0000     -11.283658      -307.0439
   5   2.0000     -11.283375      -307.0362
   6   2.0000     -11.280315      -306.9530
   7   2.0000     -11.272916      -306.7517
   8   2.0000     -11.271223      -306.7056
   9   2.0000      -1.218783       -33.1648
  10   2.0000      -1.214997       -33.0617
  11   2.0000      -1.214535       -33.0492
  12   2.0000      -1.044378       -28.4190
  13   2.0000      -1.036919       -28.2160
  14   2.0000      -1.033914       -28.1342
  15   2.0000      -0.701764       -19.0960
  16   2.0000      -0.695878       -18.9358
  17   2.0000      -0.691319       -18.8117
  18   2.0000      -0.633206       -17.2304
  19   2.0000      -0.631400       -17.1813
  20   2.0000      -0.630963       -17.1694
  21   2.0000      -0.623632       -16.9699
  22   2.0000      -0.621964       -16.9245
  23   2.0000      -0.614101       -16.7105
  24   2.0000      -0.559728       -15.2310
  25   2.0000      -0.556339       -15.1388
  26   2.0000      -0.556163       -15.1340
  27   2.0000      -0.461003       -12.5445
  28   2.0000      -0.459160       -12.4944
  29   2.0000      -0.458355       -12.4725
  30   2.0000      -0.457846       -12.4586
  31   2.0000      -0.457468       -12.4483
  32   2.0000      -0.456455       -12.4208
  33   0.0000       0.118237         3.2174
  34   0.0000       0.127843         3.4788
  35   0.0000       0.141811         3.8589
  36   0.0000       0.168880         4.5955
  37   0.0000       0.170694         4.6448

MULLIKEN ATOMIC CHARGES
-----------------------
   0 C :   -0.280897
   1 H :    0.172583
   2 H :    0.172094
   3 H :    0.171088
   4 C :   -0.145534
   5 N :   -0.089334
   6 C :   -0.287164
   7 H :    0.166298
   8 H :    0.166555
   9 H :    0.207172
  10 C :   -0.101142
  11 N :   -0.151650
  12 C :   -0.285610
  13 H :    0.206235
  14 H :    0.165112
  15 H :    0.166190
  16 C :   -0.101276
  17 N :   -0.150719
Sum of atomic charges:    0.0000000

LOEWDIN ATOMIC CHARGES
----------------------
   0 C :   -0.284212
   1 H :    0.151467
   2 H :    0.151457
   3 H :    0.152713
   4 C :   -0.219010
   5 N :    0.047585
   6 C :   -0.282046
   7 H :    0.150862
   8 H :    0.151064
   9 H :    0.157519
  10 C :   -0.206455
  11 N :    0.029358
  12 C :   -0.282797
  13 H :    0.157048
  14 H :    0.152320
  15 H :    0.150827
  16 C :   -0.208026
  17 N :    0.030325

  Mayer bond orders larger than 0.100000
B(  0-C ,  1-H ) :   0.9162 B(  0-C ,  2-H ) :   0.9169 B(  0-C ,  3-H ) :   0.9170
B(  0-C ,  4-C ) :   0.9027 B(  4-C ,  5-N ) :   2.8362 B(  6-C ,  7-H ) :   0.9159
B(  6-C ,  8-H ) :   0.9146 B(  6-C ,  9-H ) :   0.9011 B(  6-C , 10-C ) :   0.9024
B( 10-C , 11-N ) :   2.7709 B( 12-C , 13-H ) :   0.9009 B( 12-C , 14-H ) :   0.9152
B( 12-C , 15-H ) :   0.9164 B( 12-C , 16-C ) :   0.9012 B( 16-C , 17-N ) :   2.7684

MP2 TOTAL ENERGY:     -397.459120434 Eh
FINAL SINGLE POINT ENERGY      -397.459120434405

DIPOLE MOMENT
-------------
                                X             Y             Z
Electronic contribution:     -0.01182       0.15393       3.12615
Nuclear contribution   :      0.01642      -0.23206      -4.63499
                        -----------------------------------------
Total Dipole Moment    :      0.00459      -0.07813      -1.50883
                        -----------------------------------------
Magnitude (a.u.)       :      1.51086
Magnitude (Debye)      :      3.84031

Rotational constants in cm-1:     0.082589     0.005260     0.005055
Rotational constants in MHz :  2475.965635   157.691085   151.542689

                             ****ORCA TERMINATED NORMALLY****
TOTAL RUN TIME: 0 days 0 hours 2 minutes 28 seconds 599 msec
