                         Program Version 4.2.0 -  RELEASE  -
|  1> # 12h2o.su.etal.mol0,1,2,3,4,5,7,8,9,10,11
|  2> ! MP2 def2-TZVP EnGrad TightSCF
|  3>
|  4> %pal
|  5>     nprocs 6
|  6> end
|  7>
|  8> %maxcore 8000
|  9>
| 10> %scf
| 11>     ConvForced true
| 12> end
| 13>
| 14> *xyz 0 1
| 15> O   1.794470000   0.923410000   2.768350000
| 16> H   2.338250000   1.359750000   3.430940000
| 17> H   0.879480000   1.303000000   2.865760000
| 18> O  -1.794470000  -0.923410000   2.768350000
| 19> H  -2.338250000  -1.359750000   3.430940000
| 20> H  -0.879480000  -1.303000000   2.865760000
| 21> O   0.923410000  -1.794470000  -2.768350000
| 22> H   1.359750000  -2.338250000  -3.430940000
| 23> H   1.303000000  -0.879480000  -2.865760000
| 24> O  -1.752130000  -0.741530000  -2.896280000
| 25> H  -2.036450000  -0.920500000  -1.984040000
| 26> H  -0.921210000  -1.242140000  -2.984230000
| 27> O  -0.885520000   1.737840000   0.052730000
| 28> H  -1.032320000   2.090180000  -0.841890000
| 29> H  -1.284090000   0.839590000   0.017130000
| 30> O   0.885520000  -1.737840000   0.052730000
| 31> H   1.284090000  -0.839590000   0.017130000
| 32> H   1.032320000  -2.090180000  -0.841890000
| 33> O  -1.737840000  -0.885520000  -0.052730000
| 34> H  -2.090180000  -1.032320000   0.841890000
| 35> H  -0.839590000  -1.284090000  -0.017130000
| 36> O   1.752130000   0.741530000  -2.896280000
| 37> H   2.036450000   0.920500000  -1.984040000
| 38> H   0.921210000   1.242140000  -2.984230000
| 39> O   0.741530000  -1.752130000   2.896280000
| 40> H   0.920500000  -2.036450000   1.984040000
| 41> H   1.242140000  -0.921210000   2.984230000
| 42> O  -0.923410000   1.794470000  -2.768350000
| 43> H  -1.359750000   2.338250000  -3.430940000
| 44> H  -1.303000000   0.879480000  -2.865760000
| 45> O  -0.741530000   1.752130000   2.896280000
| 46> H  -0.920500000   2.036450000   1.984040000
| 47> H  -1.242140000   0.921210000   2.984230000
| 48> *
| 49>
| 50>                          ****END OF INPUT****

CARTESIAN COORDINATES (ANGSTROEM)
---------------------------------
  O      1.794470    0.923410    2.768350
  H      2.338250    1.359750    3.430940
  H      0.879480    1.303000    2.865760
  O     -1.794470   -0.923410    2.768350
  H     -2.338250   -1.359750    3.430940
  H     -0.879480   -1.303000    2.865760
  O      0.923410   -1.794470   -2.768350
  H      1.359750   -2.338250   -3.430940
  H      1.303000   -0.879480   -2.865760
  O     -1.752130   -0.741530   -2.896280
  H     -2.036450   -0.920500   -1.984040
  H     -0.921210   -1.242140   -2.984230
  O     -0.885520    1.737840    0.052730
  H     -1.032320    2.090180   -0.841890
  H     -1.284090    0.839590    0.017130
  O      0.885520   -1.737840    0.052730
  H      1.284090   -0.839590    0.017130
  H      1.032320   -2.090180   -0.841890
  O     -1.737840   -0.885520   -0.052730
  H     -2.090180   -1.032320    0.841890
  H     -0.839590   -1.284090   -0.017130
  O      1.752130    0.741530   -2.896280
  H      2.036450    0.920500   -1.984040
  H      0.921210    1.242140   -2.984230
  O      0.741530   -1.752130    2.896280
  H      0.920500   -2.036450    1.984040
  H      1.242140   -0.921210    2.984230
  O     -0.923410    1.794470   -2.768350
  H     -1.359750    2.338250   -3.430940
  H     -1.303000    0.879480   -2.865760
  O     -0.741530    1.752130    2.896280
  H     -0.920500    2.036450    1.984040
  H     -1.242140    0.921210    2.984230

 Total Charge           Charge          ....    0
 Multiplicity           Mult            ....    1
 Number of Electrons    NEL             ....  110
 Basis Dimension        Dim             ....  473

ORBITAL ENERGIES
----------------

  NO   OCC          E(Eh)            E(eV)
   0   2.0000     -20.597094      -560.4754
   1   2.0000     -20.589112      -560.2582
   2   2.0000     -20.586658      -560.1914
   3   2.0000     -20.569109      -559.7139
   4   2.0000     -20.563308      -559.5561
   5   2.0000     -20.558352      -559.4212
   6   2.0000     -20.557881      -559.4084
   7   2.0000     -20.551417      -559.2325
   8   2.0000     -20.538041      -558.8685
   9   2.0000     -20.534599      -558.7748
  10   2.0000     -20.525796      -558.5353
  11   2.0000      -1.390238       -37.8303
  12   2.0000      -1.382363       -37.6160
  13   2.0000      -1.365812       -37.1656
  14   2.0000      -1.363379       -37.0994
  15   2.0000      -1.359108       -36.9832
  16   2.0000      -1.348982       -36.7077
  17   2.0000      -1.340267       -36.4705
  18   2.0000      -1.335568       -36.3426
  19   2.0000      -1.333147       -36.2768
  20   2.0000      -1.315195       -35.7883
  21   2.0000      -1.307686       -35.5840
  22   2.0000      -0.753358       -20.4999
  23   2.0000      -0.745589       -20.2885
  24   2.0000      -0.742567       -20.2063
  25   2.0000      -0.729576       -19.8528
  26   2.0000      -0.729330       -19.8461
  27   2.0000      -0.724105       -19.7039
  28   2.0000      -0.713784       -19.4230
  29   2.0000      -0.711598       -19.3636
  30   2.0000      -0.698818       -19.0158
  31   2.0000      -0.697348       -18.9758
  32   2.0000      -0.685726       -18.6595
  33   2.0000      -0.653185       -17.7741
  34   2.0000      -0.632470       -17.2104
  35   2.0000      -0.622889       -16.9497
  36   2.0000      -0.609207       -16.5774
  37   2.0000      -0.605555       -16.4780
  38   2.0000      -0.596473       -16.2309
  39   2.0000      -0.585811       -15.9407
  40   2.0000      -0.580918       -15.8076
  41   2.0000      -0.566695       -15.4206
  42   2.0000      -0.561484       -15.2788
  43   2.0000      -0.539335       -14.6760
  44   2.0000      -0.535028       -14.5588
  45   2.0000      -0.533106       -14.5066
  46   2.0000      -0.531196       -14.4546
  47   2.0000      -0.514891       -14.0109
  48   2.0000      -0.510228       -13.8840
  49   2.0000      -0.505307       -13.7501
  50   2.0000      -0.501103       -13.6357
  51   2.0000      -0.498385       -13.5617
  52   2.0000      -0.488376       -13.2894
  53   2.0000      -0.482165       -13.1204
  54   2.0000      -0.476260       -12.9597
  55   0.0000       0.094802         2.5797
  56   0.0000       0.134096         3.6489
  57   0.0000       0.139230         3.7886
  58   0.0000       0.142313         3.8725
  59   0.0000       0.161729         4.4009

MULLIKEN ATOMIC CHARGES
-----------------------
   0 O :   -0.752110
   1 H :    0.338377
   2 H :    0.386035
   3 O :   -0.759439
   4 H :    0.350299
   5 H :    0.385169
   6 O :   -0.762241
   7 H :    0.358482
   8 H :    0.384002
   9 O :   -0.724668
  10 H :    0.391134
  11 H :    0.367700
  12 O :   -0.757032
  13 H :    0.367010
  14 H :    0.350998
  15 O :   -0.733311
  16 H :    0.359889
  17 H :    0.391726
  18 O :   -0.756000
  19 H :    0.385354
  20 H :    0.363774
  21 O :   -0.707568
  22 H :    0.355267
  23 H :    0.386084
  24 O :   -0.725291
  25 H :    0.382506
  26 H :    0.371587
  27 O :   -0.759787
  28 H :    0.351435
  29 H :    0.386204
  30 O :   -0.727960
  31 H :    0.388701
  32 H :    0.363674
Sum of atomic charges:    0.0000000

LOEWDIN ATOMIC CHARGES
----------------------
   0 O :   -0.346189
   1 H :    0.154306
   2 H :    0.146168
   3 O :   -0.316462
   4 H :    0.159027
   5 H :    0.146565
   6 O :   -0.315925
   7 H :    0.163016
   8 H :    0.145835
   9 O :   -0.286486
  10 H :    0.157169
  11 H :    0.148547
  12 O :   -0.351898
  13 H :    0.146668
  14 H :    0.137624
  15 O :   -0.282687
  16 H :    0.176393
  17 H :    0.157143
  18 O :   -0.302968
  19 H :    0.153380
  20 H :    0.141764
  21 O :   -0.278479
  22 H :    0.169846
  23 H :    0.156923
  24 O :   -0.287742
  25 H :    0.153826
  26 H :    0.151053
  27 O :   -0.316160
  28 H :    0.159556
  29 H :    0.146482
  30 O :   -0.290977
  31 H :    0.157502
  32 H :    0.147182

  Mayer bond orders larger than 0.100000
B(  0-O ,  1-H ) :   0.8498 B(  0-O ,  2-H ) :   0.7353 B(  2-H , 30-O ) :   0.1210
B(  3-O ,  4-H ) :   0.8408 B(  3-O ,  5-H ) :   0.7244 B(  5-H , 24-O ) :   0.1258
B(  6-O ,  7-H ) :   0.8363 B(  6-O ,  8-H ) :   0.7307 B(  8-H , 21-O ) :   0.1166
B(  9-O , 10-H ) :   0.7959 B(  9-O , 11-H ) :   0.8030 B(  9-O , 29-H ) :   0.1239
B( 12-O , 13-H ) :   0.8139 B( 12-O , 14-H ) :   0.7782 B( 15-O , 16-H ) :   0.8227
B( 15-O , 17-H ) :   0.7852 B( 18-O , 19-H ) :   0.7920 B( 18-O , 20-H ) :   0.7720
B( 21-O , 22-H ) :   0.8377 B( 21-O , 23-H ) :   0.7788 B( 24-O , 25-H ) :   0.8101
B( 24-O , 26-H ) :   0.7852 B( 27-O , 28-H ) :   0.8397 B( 27-O , 29-H ) :   0.7247
B( 30-O , 31-H ) :   0.7940 B( 30-O , 32-H ) :   0.8052

MP2 TOTAL ENERGY:     -839.607524240 Eh
FINAL SINGLE POINT ENERGY      -839.607524240353

DIPOLE MOMENT
-------------
                                X             Y             Z
Electronic contribution:      0.03798      -0.18090      -0.24734
Nuclear contribution   :      0.45439      -0.45394      -0.77428
                        -----------------------------------------
Total Dipole Moment    :      0.49238      -0.63485      -1.02162
                        -----------------------------------------
Magnitude (a.u.)       :      1.29968
Magnitude (Debye)      :      3.30353

Rotational constants in cm-1:     0.022136     0.011195     0.010673
Rotational constants in MHz :   663.630458   335.617353   319.954713

                             ****ORCA TERMINATED NORMALLY****
TOTAL RUN TIME: 0 days 0 hours 10 minutes 47 seconds 991 msec
