                         Program Version 4.2.0 -  RELEASE  -
|  1> # 12meoh.boyd.etal.mol2,6,11
|  2> ! MP2 def2-TZVP EnGrad TightSCF
|  3>
|  4> %pal
|  5>     nprocs 6
|  6> end
|  7>
|  8> %maxcore 8000
|  9>
| 10> %scf
| 11>     ConvForced true
| 12> end
| 13>
| 14> *xyz 0 1
| 15> O  -3.839777402   2.233595098   0.660436763
| 16> H  -2.958345897   1.907036203   0.973588449
| 17> C  -3.600368059   3.168790682  -0.390480452
| 18> H  -4.551709193   3.344148967  -0.901254863
| 19> H  -2.868237594   2.789240199  -1.113617525
| 20> H  -3.243594915   4.128998607   0.009549480
| 21> O   2.622209273  -1.703002590  -1.445859723
| 22> H   1.828551432  -1.986513781  -0.909754968
| 23> C   2.781117675  -2.615822239  -2.525472890
| 24> H   3.691063626  -2.339003544  -3.065143454
| 25> H   1.934727323  -2.559520367  -3.223226661
| 26> H   2.879948338  -3.653846211  -2.177750170
| 27> O   3.252955559   0.588596242   1.858934315
| 28> H   3.621209177  -0.251605199   1.476063364
| 29> C   4.040824528   0.944288422   2.989639460
| 30> H   3.670521436   1.902573549   3.363847391
| 31> H   5.103749934   1.055868619   2.734277559
| 32> H   3.948540682   0.200279590   3.792908518
| 33> *
| 34>
| 35>                          ****END OF INPUT****

CARTESIAN COORDINATES (ANGSTROEM)
---------------------------------
  O     -3.839777    2.233595    0.660437
  H     -2.958346    1.907036    0.973588
  C     -3.600368    3.168791   -0.390480
  H     -4.551709    3.344149   -0.901255
  H     -2.868238    2.789240   -1.113618
  H     -3.243595    4.128999    0.009549
  O      2.622209   -1.703003   -1.445860
  H      1.828551   -1.986514   -0.909755
  C      2.781118   -2.615822   -2.525473
  H      3.691064   -2.339004   -3.065143
  H      1.934727   -2.559520   -3.223227
  H      2.879948   -3.653846   -2.177750
  O      3.252956    0.588596    1.858934
  H      3.621209   -0.251605    1.476063
  C      4.040825    0.944288    2.989639
  H      3.670521    1.902574    3.363847
  H      5.103750    1.055869    2.734278
  H      3.948541    0.200280    3.792909

 Total Charge           Charge          ....    0
 Multiplicity           Mult            ....    1
 Number of Electrons    NEL             ....   54
 Basis Dimension        Dim             ....  258

ORBITAL ENERGIES
----------------

  NO   OCC          E(Eh)            E(eV)
   0   2.0000     -20.562394      -559.5312
   1   2.0000     -20.553283      -559.2833
   2   2.0000     -20.552389      -559.2589
   3   2.0000     -11.275128      -306.8118
   4   2.0000     -11.268568      -306.6333
   5   2.0000     -11.268317      -306.6265
   6   2.0000      -1.350314       -36.7439
   7   2.0000      -1.342779       -36.5389
   8   2.0000      -1.341891       -36.5147
   9   2.0000      -0.923006       -25.1163
  10   2.0000      -0.916278       -24.9332
  11   2.0000      -0.916139       -24.9294
  12   2.0000      -0.684987       -18.6394
  13   2.0000      -0.678000       -18.4493
  14   2.0000      -0.677343       -18.4314
  15   2.0000      -0.620835       -16.8938
  16   2.0000      -0.613458       -16.6930
  17   2.0000      -0.613176       -16.6854
  18   2.0000      -0.595278       -16.1983
  19   2.0000      -0.586869       -15.9695
  20   2.0000      -0.586468       -15.9586
  21   2.0000      -0.503792       -13.7089
  22   2.0000      -0.498124       -13.5546
  23   2.0000      -0.496353       -13.5065
  24   2.0000      -0.453131       -12.3303
  25   2.0000      -0.445644       -12.1266
  26   2.0000      -0.444980       -12.1085
  27   0.0000       0.123731         3.3669
  28   0.0000       0.139606         3.7989
  29   0.0000       0.147961         4.0262
  30   0.0000       0.168074         4.5735
  31   0.0000       0.179978         4.8975

MULLIKEN ATOMIC CHARGES
-----------------------
   0 O :   -0.498517
   1 H :    0.322955
   2 C :   -0.174633
   3 H :    0.127460
   4 H :    0.112490
   5 H :    0.110244
   6 O :   -0.499553
   7 H :    0.324764
   8 C :   -0.173913
   9 H :    0.130364
  10 H :    0.111663
  11 H :    0.109645
  12 O :   -0.501039
  13 H :    0.327175
  14 C :   -0.173576
  15 H :    0.126817
  16 H :    0.110705
  17 H :    0.106949
Sum of atomic charges:    0.0000000

LOEWDIN ATOMIC CHARGES
----------------------
   0 O :   -0.111656
   1 H :    0.188816
   2 C :   -0.378586
   3 H :    0.109153
   4 H :    0.096291
   5 H :    0.095982
   6 O :   -0.112196
   7 H :    0.193564
   8 C :   -0.381598
   9 H :    0.110632
  10 H :    0.096314
  11 H :    0.095491
  12 O :   -0.109781
  13 H :    0.191388
  14 C :   -0.383013
  15 H :    0.109262
  16 H :    0.095642
  17 H :    0.094294

  Mayer bond orders larger than 0.100000
B(  0-O ,  1-H ) :   0.8431 B(  0-O ,  2-C ) :   0.9264 B(  2-C ,  3-H ) :   0.9380
B(  2-C ,  4-H ) :   0.9412 B(  2-C ,  5-H ) :   0.9378 B(  6-O ,  7-H ) :   0.8385
B(  6-O ,  8-C ) :   0.9223 B(  8-C ,  9-H ) :   0.9378 B(  8-C , 10-H ) :   0.9383
B(  8-C , 11-H ) :   0.9387 B( 12-O , 13-H ) :   0.8359 B( 12-O , 14-C ) :   0.9315
B( 14-C , 15-H ) :   0.9379 B( 14-C , 16-H ) :   0.9393 B( 14-C , 17-H ) :   0.9390

MP2 TOTAL ENERGY:     -346.521483308 Eh
FINAL SINGLE POINT ENERGY      -346.521483307525

DIPOLE MOMENT
-------------
                                X             Y             Z
Electronic contribution:     -1.57946      -0.27657       1.14331
Nuclear contribution   :      2.35331      -0.48401      -1.32119
                        -----------------------------------------
Total Dipole Moment    :      0.77385      -0.76058      -0.17788
                        -----------------------------------------
Magnitude (a.u.)       :      1.09953
Magnitude (Debye)      :      2.79478

Rotational constants in cm-1:     0.033088     0.013081     0.009601
Rotational constants in MHz :   991.954053   392.173007   287.837239

                             ****ORCA TERMINATED NORMALLY****
TOTAL RUN TIME: 0 days 0 hours 0 minutes 44 seconds 448 msec
