                         Program Version 4.2.0 -  RELEASE  -
|  1> # 12mecn.remya.etal.2.mol0,3,10
|  2> ! MP2 def2-TZVP EnGrad TightSCF
|  3>
|  4> %pal
|  5>     nprocs 6
|  6> end
|  7>
|  8> %maxcore 8000
|  9>
| 10> %scf
| 11>     ConvForced true
| 12> end
| 13>
| 14> *xyz 0 1
| 15> C  -0.869520000  -3.929380000   1.700199000
| 16> H  -0.057420000  -3.268850000   2.015352000
| 17> H  -0.697530000  -4.930670000   2.101524000
| 18> H  -1.821490000  -3.546590000   2.077146000
| 19> C  -0.916080000  -3.969960000   0.256749000
| 20> N  -0.955390000  -3.995980000  -0.909290000
| 21> C  -5.181310000   2.853865000  -1.626100000
| 22> H  -5.488260000   3.811434000  -2.053310000
| 23> H  -5.857590000   2.068112000  -1.968630000
| 24> H  -4.170750000   2.611402000  -1.966640000
| 25> C  -5.187260000   2.919160000  -0.181450000
| 26> N  -5.181700000   2.970641000   0.983640000
| 27> C   4.602033000   0.321019000  -1.784800000
| 28> H   4.827650000  -0.662160000  -2.207910000
| 29> H   5.320558000   1.057980000  -2.148500000
| 30> H   3.601982000   0.643751000  -2.087520000
| 31> C   4.654967000   0.244048000  -0.343060000
| 32> N   4.691648000   0.166590000   0.820757000
| 33> *
| 34>
| 35>                          ****END OF INPUT****

CARTESIAN COORDINATES (ANGSTROEM)
---------------------------------
  C     -0.869520   -3.929380    1.700199
  H     -0.057420   -3.268850    2.015352
  H     -0.697530   -4.930670    2.101524
  H     -1.821490   -3.546590    2.077146
  C     -0.916080   -3.969960    0.256749
  N     -0.955390   -3.995980   -0.909290
  C     -5.181310    2.853865   -1.626100
  H     -5.488260    3.811434   -2.053310
  H     -5.857590    2.068112   -1.968630
  H     -4.170750    2.611402   -1.966640
  C     -5.187260    2.919160   -0.181450
  N     -5.181700    2.970641    0.983640
  C      4.602033    0.321019   -1.784800
  H      4.827650   -0.662160   -2.207910
  H      5.320558    1.057980   -2.148500
  H      3.601982    0.643751   -2.087520
  C      4.654967    0.244048   -0.343060
  N      4.691648    0.166590    0.820757

 Total Charge           Charge          ....    0
 Multiplicity           Mult            ....    1
 Number of Electrons    NEL             ....   66
 Basis Dimension        Dim             ....  333

ORBITAL ENERGIES
----------------

  NO   OCC          E(Eh)            E(eV)
   0   2.0000     -15.573521      -423.7771
   1   2.0000     -15.573472      -423.7757
   2   2.0000     -15.572648      -423.7533
   3   2.0000     -11.284820      -307.0756
   4   2.0000     -11.284587      -307.0692
   5   2.0000     -11.282329      -307.0078
   6   2.0000     -11.280743      -306.9646
   7   2.0000     -11.280554      -306.9595
   8   2.0000     -11.280220      -306.9504
   9   2.0000      -1.215150       -33.0659
  10   2.0000      -1.214922       -33.0597
  11   2.0000      -1.214256       -33.0416
  12   2.0000      -1.044084       -28.4110
  13   2.0000      -1.043773       -28.4025
  14   2.0000      -1.042258       -28.3613
  15   2.0000      -0.701217       -19.0811
  16   2.0000      -0.699948       -19.0466
  17   2.0000      -0.698279       -19.0011
  18   2.0000      -0.634045       -17.2532
  19   2.0000      -0.632472       -17.2104
  20   2.0000      -0.630181       -17.1481
  21   2.0000      -0.630113       -17.1462
  22   2.0000      -0.629696       -17.1349
  23   2.0000      -0.629458       -17.1284
  24   2.0000      -0.556488       -15.1428
  25   2.0000      -0.556448       -15.1417
  26   2.0000      -0.556053       -15.1310
  27   2.0000      -0.458488       -12.4761
  28   2.0000      -0.458253       -12.4697
  29   2.0000      -0.457948       -12.4614
  30   2.0000      -0.457711       -12.4549
  31   2.0000      -0.457338       -12.4448
  32   2.0000      -0.457210       -12.4413
  33   0.0000       0.118617         3.2277
  34   0.0000       0.119324         3.2470
  35   0.0000       0.123145         3.3509
  36   0.0000       0.171150         4.6572
  37   0.0000       0.171195         4.6585

MULLIKEN ATOMIC CHARGES
-----------------------
   0 C :   -0.278911
   1 H :    0.177516
   2 H :    0.171586
   3 H :    0.173289
   4 C :   -0.145526
   5 N :   -0.097961
   6 C :   -0.280209
   7 H :    0.172091
   8 H :    0.172967
   9 H :    0.172448
  10 C :   -0.145731
  11 N :   -0.091566
  12 C :   -0.277509
  13 H :    0.173844
  14 H :    0.171462
  15 H :    0.172490
  16 C :   -0.145717
  17 N :   -0.094563
Sum of atomic charges:    0.0000000

LOEWDIN ATOMIC CHARGES
----------------------
   0 C :   -0.282432
   1 H :    0.154678
   2 H :    0.151773
   3 H :    0.153584
   4 C :   -0.218862
   5 N :    0.041257
   6 C :   -0.283681
   7 H :    0.151383
   8 H :    0.151922
   9 H :    0.153286
  10 C :   -0.218710
  11 N :    0.045800
  12 C :   -0.283062
  13 H :    0.153639
  14 H :    0.151356
  15 H :    0.153448
  16 C :   -0.219396
  17 N :    0.044018

  Mayer bond orders larger than 0.100000
B(  0-C ,  1-H ) :   0.9149 B(  0-C ,  2-H ) :   0.9164 B(  0-C ,  3-H ) :   0.9157
B(  0-C ,  4-C ) :   0.9014 B(  4-C ,  5-N ) :   2.8408 B(  6-C ,  7-H ) :   0.9163
B(  6-C ,  8-H ) :   0.9165 B(  6-C ,  9-H ) :   0.9165 B(  6-C , 10-C ) :   0.9028
B( 10-C , 11-N ) :   2.8377 B( 12-C , 13-H ) :   0.9153 B( 12-C , 14-H ) :   0.9171
B( 12-C , 15-H ) :   0.9162 B( 12-C , 16-C ) :   0.9020 B( 16-C , 17-N ) :   2.8384

MP2 TOTAL ENERGY:     -397.450673324 Eh
FINAL SINGLE POINT ENERGY      -397.450673324185

DIPOLE MOMENT
-------------
                                X             Y             Z
Electronic contribution:      0.00278      -0.12029       3.13001
Nuclear contribution   :     -0.00048       0.18447      -4.64480
                        -----------------------------------------
Total Dipole Moment    :      0.00230       0.06418      -1.51478
                        -----------------------------------------
Magnitude (a.u.)       :      1.51614
Magnitude (Debye)      :      3.85373

Rotational constants in cm-1:     0.016776     0.007268     0.005593
Rotational constants in MHz :   502.931710   217.900600   167.668275

                             ****ORCA TERMINATED NORMALLY****
TOTAL RUN TIME: 0 days 0 hours 1 minutes 44 seconds 80 msec
