                         Program Version 4.2.0 -  RELEASE  -
|  1> # 12h2o.su.etal.mol0,1,2,10,11
|  2> ! MP2 def2-TZVP EnGrad TightSCF
|  3>
|  4> %pal
|  5>     nprocs 6
|  6> end
|  7>
|  8> %maxcore 8000
|  9>
| 10> %scf
| 11>     ConvForced true
| 12> end
| 13>
| 14> *xyz 0 1
| 15> O   1.794470000   0.923410000   2.768350000
| 16> H   2.338250000   1.359750000   3.430940000
| 17> H   0.879480000   1.303000000   2.865760000
| 18> O  -1.794470000  -0.923410000   2.768350000
| 19> H  -2.338250000  -1.359750000   3.430940000
| 20> H  -0.879480000  -1.303000000   2.865760000
| 21> O   0.923410000  -1.794470000  -2.768350000
| 22> H   1.359750000  -2.338250000  -3.430940000
| 23> H   1.303000000  -0.879480000  -2.865760000
| 24> O  -0.923410000   1.794470000  -2.768350000
| 25> H  -1.359750000   2.338250000  -3.430940000
| 26> H  -1.303000000   0.879480000  -2.865760000
| 27> O  -0.741530000   1.752130000   2.896280000
| 28> H  -0.920500000   2.036450000   1.984040000
| 29> H  -1.242140000   0.921210000   2.984230000
| 30> *
| 31>
| 32>                          ****END OF INPUT****

CARTESIAN COORDINATES (ANGSTROEM)
---------------------------------
  O      1.794470    0.923410    2.768350
  H      2.338250    1.359750    3.430940
  H      0.879480    1.303000    2.865760
  O     -1.794470   -0.923410    2.768350
  H     -2.338250   -1.359750    3.430940
  H     -0.879480   -1.303000    2.865760
  O      0.923410   -1.794470   -2.768350
  H      1.359750   -2.338250   -3.430940
  H      1.303000   -0.879480   -2.865760
  O     -0.923410    1.794470   -2.768350
  H     -1.359750    2.338250   -3.430940
  H     -1.303000    0.879480   -2.865760
  O     -0.741530    1.752130    2.896280
  H     -0.920500    2.036450    1.984040
  H     -1.242140    0.921210    2.984230

 Total Charge           Charge          ....    0
 Multiplicity           Mult            ....    1
 Number of Electrons    NEL             ....   50
 Basis Dimension        Dim             ....  215

ORBITAL ENERGIES
----------------

  NO   OCC          E(Eh)            E(eV)
   0   2.0000     -20.588983      -560.2547
   1   2.0000     -20.562626      -559.5375
   2   2.0000     -20.560319      -559.4747
   3   2.0000     -20.558976      -559.4382
   4   2.0000     -20.507814      -558.0460
   5   2.0000      -1.367618       -37.2148
   6   2.0000      -1.348144       -36.6849
   7   2.0000      -1.337954       -36.4076
   8   2.0000      -1.334308       -36.3084
   9   2.0000      -1.289787       -35.0969
  10   2.0000      -0.734647       -19.9908
  11   2.0000      -0.709878       -19.3168
  12   2.0000      -0.706660       -19.2292
  13   2.0000      -0.701967       -19.1015
  14   2.0000      -0.677547       -18.4370
  15   2.0000      -0.611609       -16.6427
  16   2.0000      -0.583613       -15.8809
  17   2.0000      -0.574142       -15.6232
  18   2.0000      -0.570525       -15.5248
  19   2.0000      -0.540641       -14.7116
  20   2.0000      -0.527527       -14.3547
  21   2.0000      -0.506247       -13.7757
  22   2.0000      -0.502033       -13.6610
  23   2.0000      -0.491971       -13.3872
  24   2.0000      -0.458509       -12.4767
  25   0.0000       0.112007         3.0479
  26   0.0000       0.117568         3.1992
  27   0.0000       0.145423         3.9572
  28   0.0000       0.161587         4.3970
  29   0.0000       0.184996         5.0340

MULLIKEN ATOMIC CHARGES
-----------------------
   0 O :   -0.735904
   1 H :    0.321758
   2 H :    0.364434
   3 O :   -0.701054
   4 H :    0.353227
   5 H :    0.371650
   6 O :   -0.688286
   7 H :    0.337157
   8 H :    0.351242
   9 O :   -0.688462
  10 H :    0.338113
  11 H :    0.350396
  12 O :   -0.703243
  13 H :    0.357336
  14 H :    0.371635
Sum of atomic charges:   -0.0000000

LOEWDIN ATOMIC CHARGES
----------------------
   0 O :   -0.375462
   1 H :    0.146726
   2 H :    0.140909
   3 O :   -0.310464
   4 H :    0.164171
   5 H :    0.192892
   6 O :   -0.340666
   7 H :    0.157292
   8 H :    0.183442
   9 O :   -0.340703
  10 H :    0.157718
  11 H :    0.183005
  12 O :   -0.284652
  13 H :    0.173051
  14 H :    0.152738

  Mayer bond orders larger than 0.100000
B(  0-O ,  1-H ) :   0.8623 B(  0-O ,  2-H ) :   0.7777 B(  3-O ,  4-H ) :   0.8412
B(  3-O ,  5-H ) :   0.8218 B(  6-O ,  7-H ) :   0.8538 B(  6-O ,  8-H ) :   0.8382
B(  9-O , 10-H ) :   0.8531 B(  9-O , 11-H ) :   0.8386 B( 12-O , 13-H ) :   0.8383
B( 12-O , 14-H ) :   0.7994

MP2 TOTAL ENERGY:     -381.584792696 Eh
FINAL SINGLE POINT ENERGY      -381.584792695869

DIPOLE MOMENT
-------------
                                X             Y             Z
Electronic contribution:     -0.29943      -0.04712       0.08980
Nuclear contribution   :     -0.56566      -0.45497      -0.68611
                        -----------------------------------------
Total Dipole Moment    :     -0.86509      -0.50209      -0.59631
                        -----------------------------------------
Magnitude (a.u.)       :      1.16450
Magnitude (Debye)      :      2.95992

Rotational constants in cm-1:     0.049489     0.019797     0.018923
Rotational constants in MHz :  1483.645590   593.498164   567.299039

                             ****ORCA TERMINATED NORMALLY****
TOTAL RUN TIME: 0 days 0 hours 0 minutes 25 seconds 448 msec
