                         Program Version 4.2.0 -  RELEASE  -
|  1> # 12mecn.remya.etal.2.mol5,9,11
|  2> ! MP2 def2-TZVP EnGrad TightSCF
|  3>
|  4> %pal
|  5>     nprocs 6
|  6> end
|  7>
|  8> %maxcore 8000
|  9>
| 10> %scf
| 11>     ConvForced true
| 12> end
| 13>
| 14> *xyz 0 1
| 15> C  -1.955700000   2.515080000   1.698463000
| 16> H  -2.923830000   2.883163000   2.049269000
| 17> H  -1.154850000   3.171830000   2.050990000
| 18> H  -1.790380000   1.506115000   2.087896000
| 19> C  -1.948230000   2.482156000   0.253672000
| 20> N  -1.937550000   2.462523000  -0.913150000
| 21> C   0.923766000   4.000693000  -1.575910000
| 22> H   0.011949000   4.478423000  -1.939550000
| 23> H   0.947903000   2.966558000  -1.929960000
| 24> H   1.805950000   4.519548000  -1.956520000
| 25> C   0.942834000   3.994846000  -0.131200000
| 26> N   0.960035000   3.982544000   1.035639000
| 27> C   4.214163000   3.378139000   1.593627000
| 28> H   3.242643000   3.657109000   2.012358000
| 29> H   4.969258000   4.086643000   1.941290000
| 30> H   4.482966000   2.372549000   1.931698000
| 31> C   4.130759000   3.388436000   0.150192000
| 32> N   4.050180000   3.381449000  -1.013420000
| 33> *
| 34>
| 35>                          ****END OF INPUT****

CARTESIAN COORDINATES (ANGSTROEM)
---------------------------------
  C     -1.955700    2.515080    1.698463
  H     -2.923830    2.883163    2.049269
  H     -1.154850    3.171830    2.050990
  H     -1.790380    1.506115    2.087896
  C     -1.948230    2.482156    0.253672
  N     -1.937550    2.462523   -0.913150
  C      0.923766    4.000693   -1.575910
  H      0.011949    4.478423   -1.939550
  H      0.947903    2.966558   -1.929960
  H      1.805950    4.519548   -1.956520
  C      0.942834    3.994846   -0.131200
  N      0.960035    3.982544    1.035639
  C      4.214163    3.378139    1.593627
  H      3.242643    3.657109    2.012358
  H      4.969258    4.086643    1.941290
  H      4.482966    2.372549    1.931698
  C      4.130759    3.388436    0.150192
  N      4.050180    3.381449   -1.013420

 Total Charge           Charge          ....    0
 Multiplicity           Mult            ....    1
 Number of Electrons    NEL             ....   66
 Basis Dimension        Dim             ....  333

ORBITAL ENERGIES
----------------

  NO   OCC          E(Eh)            E(eV)
   0   2.0000     -15.570973      -423.7077
   1   2.0000     -15.569880      -423.6780
   2   2.0000     -15.569266      -423.6613
   3   2.0000     -11.286276      -307.1152
   4   2.0000     -11.282148      -307.0029
   5   2.0000     -11.280558      -306.9596
   6   2.0000     -11.273524      -306.7682
   7   2.0000     -11.272369      -306.7368
   8   2.0000     -11.261246      -306.4341
   9   2.0000      -1.219763       -33.1914
  10   2.0000      -1.214952       -33.0605
  11   2.0000      -1.212614       -32.9969
  12   2.0000      -1.036139       -28.1948
  13   2.0000      -1.035083       -28.1660
  14   2.0000      -1.026971       -27.9453
  15   2.0000      -0.694864       -18.9082
  16   2.0000      -0.692410       -18.8414
  17   2.0000      -0.685571       -18.6553
  18   2.0000      -0.631077       -17.1725
  19   2.0000      -0.625003       -17.0072
  20   2.0000      -0.623305       -16.9610
  21   2.0000      -0.621945       -16.9240
  22   2.0000      -0.610127       -16.6024
  23   2.0000      -0.608216       -16.5504
  24   2.0000      -0.560827       -15.2609
  25   2.0000      -0.555878       -15.1262
  26   2.0000      -0.554902       -15.0997
  27   2.0000      -0.462464       -12.5843
  28   2.0000      -0.460861       -12.5407
  29   2.0000      -0.458161       -12.4672
  30   2.0000      -0.456239       -12.4149
  31   2.0000      -0.454482       -12.3671
  32   2.0000      -0.452649       -12.3172
  33   0.0000       0.125296         3.4095
  34   0.0000       0.136889         3.7249
  35   0.0000       0.156038         4.2460
  36   0.0000       0.170737         4.6460
  37   0.0000       0.174861         4.7582

MULLIKEN ATOMIC CHARGES
-----------------------
   0 C :   -0.286443
   1 H :    0.167254
   2 H :    0.200545
   3 H :    0.165843
   4 C :   -0.119934
   5 N :   -0.129544
   6 C :   -0.245200
   7 H :    0.178270
   8 H :    0.175671
   9 H :    0.190425
  10 C :   -0.074525
  11 N :   -0.222116
  12 C :   -0.288885
  13 H :    0.201184
  14 H :    0.167426
  15 H :    0.166326
  16 C :   -0.109937
  17 N :   -0.136360
Sum of atomic charges:   -0.0000000

LOEWDIN ATOMIC CHARGES
----------------------
   0 C :   -0.284250
   1 H :    0.150769
   2 H :    0.155426
   3 H :    0.152278
   4 C :   -0.212692
   5 N :    0.037063
   6 C :   -0.282409
   7 H :    0.153374
   8 H :    0.160575
   9 H :    0.154420
  10 C :   -0.199357
  11 N :    0.012622
  12 C :   -0.283612
  13 H :    0.155666
  14 H :    0.150023
  15 H :    0.152396
  16 C :   -0.209748
  17 N :    0.037456

  Mayer bond orders larger than 0.100000
B(  0-C ,  1-H ) :   0.9166 B(  0-C ,  2-H ) :   0.9038 B(  0-C ,  3-H ) :   0.9156
B(  0-C ,  4-C ) :   0.8994 B(  4-C ,  5-N ) :   2.7987 B(  6-C ,  7-H ) :   0.9065
B(  6-C ,  8-H ) :   0.9117 B(  6-C ,  9-H ) :   0.9013 B(  6-C , 10-C ) :   0.9183
B( 10-C , 11-N ) :   2.6908 B( 12-C , 13-H ) :   0.9038 B( 12-C , 14-H ) :   0.9163
B( 12-C , 15-H ) :   0.9154 B( 12-C , 16-C ) :   0.9010 B( 16-C , 17-N ) :   2.7849

MP2 TOTAL ENERGY:     -397.467609624 Eh
FINAL SINGLE POINT ENERGY      -397.467609623535

DIPOLE MOMENT
-------------
                                X             Y             Z
Electronic contribution:     -0.10860      -0.00950      -3.18582
Nuclear contribution   :      0.19077       0.05339       4.64004
                        -----------------------------------------
Total Dipole Moment    :      0.08217       0.04389       1.45422
                        -----------------------------------------
Magnitude (a.u.)       :      1.45720
Magnitude (Debye)      :      3.70392

Rotational constants in cm-1:     0.081606     0.020699     0.017668
Rotational constants in MHz :  2446.477191   620.529500   529.670447

                             ****ORCA TERMINATED NORMALLY****
TOTAL RUN TIME: 0 days 0 hours 4 minutes 15 seconds 348 msec
