                         Program Version 3.0.3 - RELEASE   -
|  1> ! B3LYP Def2-TZVP def2-TZVP/J RIJCOSX TightSCF Grid4 D3BJ COSMO
|  2>
|  3> %pal nprocs 12 end
|  4>
|  5> %scf
|  6>         maxiter 400
|  7> end
|  8>
|  9> %cosmo
| 10>         SMD true
| 11>         solvent "WATER"
| 12> end
| 13>
| 14> * xyz  0  1
| 15> O  -0.181690	2.327180	-0.386723
| 16> H  0.102854	1.750384	-1.157158
| 17> H  0.450072	2.022552	0.331400
| 18> O  0.198815	-2.209437	0.353795
| 19> H  1.062136	-1.726714	0.065323
| 20> H  0.449560	-3.145337	0.482787
| 21> O  -1.457945	-1.133419	-1.478172
| 22> H  -1.869740	-0.469245	-0.848190
| 23> H  -0.911101	-1.694824	-0.852223
| 24> O  1.368298	1.067895	1.420901
| 25> H  1.874688	1.466264	2.155733
| 26> H  0.635454	0.493506	1.863059
| 27> O  -0.572993	-0.453527	2.243668
| 28> H  -1.268301	-0.009150	1.673018
| 29> H  -0.311919	-1.237201	1.673544
| 30> O  -2.098893	0.726064	0.359198
| 31> H  -2.951451	1.187850	0.482889
| 32> H  -1.426403	1.449157	0.067894
| 33> O  2.218705	-0.739246	-0.384268
| 34> H  2.080099	-0.050762	0.332841
| 35> H  1.728367	-0.325889	-1.156173
| 36> O  0.533876	0.407600	-2.139882
| 37> H  0.622075	0.511091	-3.107856
| 38> H  -0.274565	-0.214793	-1.995407
| 39> **                         ****END OF INPUT****

CARTESIAN COORDINATES (ANGSTROEM)
---------------------------------
  O     -0.181690    2.327180   -0.386723
  H      0.102854    1.750384   -1.157158
  H      0.450072    2.022552    0.331400
  O      0.198815   -2.209437    0.353795
  H      1.062136   -1.726714    0.065323
  H      0.449560   -3.145337    0.482787
  O     -1.457945   -1.133419   -1.478172
  H     -1.869740   -0.469245   -0.848190
  H     -0.911101   -1.694824   -0.852223
  O      1.368298    1.067895    1.420901
  H      1.874688    1.466264    2.155733
  H      0.635454    0.493506    1.863059
  O     -0.572993   -0.453527    2.243668
  H     -1.268301   -0.009150    1.673018
  H     -0.311919   -1.237201    1.673544
  O     -2.098893    0.726064    0.359198
  H     -2.951451    1.187850    0.482889
  H     -1.426403    1.449157    0.067894
  O      2.218705   -0.739246   -0.384268
  H      2.080099   -0.050762    0.332841
  H      1.728367   -0.325889   -1.156173
  O      0.533876    0.407600   -2.139882
  H      0.622075    0.511091   -3.107856
  H     -0.274565   -0.214793   -1.995407

 Total Charge           Charge          ....    0
 Multiplicity           Mult            ....    1
 Number of Electrons    NEL             ....   80
 Basis Dimension        Dim             ....  344

ORBITAL ENERGIES
----------------

  NO   OCC          E(Eh)            E(eV)
   0   2.0000     -19.129788      -520.5480
   1   2.0000     -19.129696      -520.5455
   2   2.0000     -19.129684      -520.5452
   3   2.0000     -19.129442      -520.5386
   4   2.0000     -19.117562      -520.2153
   5   2.0000     -19.117527      -520.2144
   6   2.0000     -19.117286      -520.2078
   7   2.0000     -19.117209      -520.2057
   8   2.0000      -1.028379       -27.9836
   9   2.0000      -1.012121       -27.5412
  10   2.0000      -1.012073       -27.5399
  11   2.0000      -1.006051       -27.3760
  12   2.0000      -0.993914       -27.0458
  13   2.0000      -0.987752       -26.8781
  14   2.0000      -0.987679       -26.8761
  15   2.0000      -0.972242       -26.4561
  16   2.0000      -0.534149       -14.5349
  17   2.0000      -0.533778       -14.5248
  18   2.0000      -0.533556       -14.5188
  19   2.0000      -0.525341       -14.2952
  20   2.0000      -0.518894       -14.1198
  21   2.0000      -0.509843       -13.8735
  22   2.0000      -0.509724       -13.8703
  23   2.0000      -0.509117       -13.8538
  24   2.0000      -0.466258       -12.6875
  25   2.0000      -0.433056       -11.7840
  26   2.0000      -0.415406       -11.3038
  27   2.0000      -0.414856       -11.2888
  28   2.0000      -0.393005       -10.6942
  29   2.0000      -0.392258       -10.6739
  30   2.0000      -0.380290       -10.3482
  31   2.0000      -0.354237        -9.6393
  32   2.0000      -0.324578        -8.8322
  33   2.0000      -0.324317        -8.8251
  34   2.0000      -0.322571        -8.7776
  35   2.0000      -0.319360        -8.6902
  36   2.0000      -0.317220        -8.6320
  37   2.0000      -0.313544        -8.5320
  38   2.0000      -0.313418        -8.5285
  39   2.0000      -0.311431        -8.4745
  40   0.0000       0.019356         0.5267
  41   0.0000       0.060368         1.6427
  42   0.0000       0.060529         1.6471
  43   0.0000       0.061829         1.6825
  44   0.0000       0.128083         3.4853

MULLIKEN ATOMIC CHARGES
-----------------------
   0 O :   -0.752640
   1 H :    0.373711
   2 H :    0.374030
   3 O :   -0.755032
   4 H :    0.371018
   5 H :    0.385731
   6 O :   -0.751609
   7 H :    0.375092
   8 H :    0.374898
   9 O :   -0.755956
  10 H :    0.385634
  11 H :    0.373525
  12 O :   -0.750928
  13 H :    0.374150
  14 H :    0.374143
  15 O :   -0.754914
  16 H :    0.385815
  17 H :    0.372929
  18 O :   -0.751661
  19 H :    0.374180
  20 H :    0.375195
  21 O :   -0.755062
  22 H :    0.385927
  23 H :    0.371824
Sum of atomic charges:   -0.0000000

LOEWDIN ATOMIC CHARGES
----------------------
   0 O :   -0.333885
   1 H :    0.145892
   2 H :    0.145672
   3 O :   -0.294876
   4 H :    0.148446
   5 H :    0.186232
   6 O :   -0.331485
   7 H :    0.146079
   8 H :    0.145821
   9 O :   -0.294435
  10 H :    0.186035
  11 H :    0.148457
  12 O :   -0.330852
  13 H :    0.146016
  14 H :    0.146046
  15 O :   -0.293838
  16 H :    0.186423
  17 H :    0.148914
  18 O :   -0.332527
  19 H :    0.145710
  20 H :    0.145654
  21 O :   -0.294188
  22 H :    0.186243
  23 H :    0.148444

  Mayer bond orders larger than 0.1
B(  0-O ,  1-H ) :   0.7920 B(  0-O ,  2-H ) :   0.7918 B(  0-O , 17-H ) :   0.1842
B(  1-H , 21-O ) :   0.1219 B(  2-H ,  9-O ) :   0.1217 B(  3-O ,  4-H ) :   0.7231
B(  3-O ,  5-H ) :   0.8500 B(  3-O ,  8-H ) :   0.1198 B(  3-O , 14-H ) :   0.1217
B(  4-H , 18-O ) :   0.1871 B(  6-O ,  7-H ) :   0.7913 B(  6-O ,  8-H ) :   0.7924
B(  6-O , 23-H ) :   0.1864 B(  7-H , 15-O ) :   0.1208 B(  9-O , 10-H ) :   0.8500
B(  9-O , 11-H ) :   0.7220 B(  9-O , 19-H ) :   0.1216 B( 11-H , 12-O ) :   0.1856
B( 12-O , 13-H ) :   0.7923 B( 12-O , 14-H ) :   0.7915 B( 13-H , 15-O ) :   0.1206
B( 15-O , 16-H ) :   0.8498 B( 15-O , 17-H ) :   0.7240 B( 18-O , 19-H ) :   0.7915
B( 18-O , 20-H ) :   0.7915 B( 20-H , 21-O ) :   0.1206 B( 21-O , 22-H ) :   0.8497
B( 21-O , 23-H ) :   0.7230

Dispersion correction           -0.026047074
FINAL SINGLE POINT ENERGY      -611.576400210366

DIPOLE MOMENT
-------------
                                X             Y             Z
Electronic contribution:     -0.00898      -0.00284       0.00189
Nuclear contribution   :     -0.02041       0.01720       0.02867
                        -----------------------------------------
Total Dipole Moment    :     -0.02939       0.01436       0.03056
                        -----------------------------------------
Magnitude (a.u.)       :      0.04477
Magnitude (Debye)      :      0.11379

                             ****ORCA TERMINATED NORMALLY****
TOTAL RUN TIME: 0 days 0 hours 1 minutes 6 seconds 250 msec
