                         Program Version 3.0.3 - RELEASE   -
|  1> ! wB97X-D3 MA-Def2-TZVP def2-TZVP/J RIJCOSX TightSCF Grid4
|  2>
|  3> %pal nprocs 1 end
|  4>
|  5> %scf
|  6>         maxiter 400
|  7> end
|  8>
|  9> * xyz  0  1
| 10> O  -0.170086	2.277273	-0.324506
| 11> H  0.136181	1.787329	-1.119694
| 12> H  0.495244	2.050991	0.363862
| 13> O  0.256198	-2.256047	0.368243
| 14> H  1.076304	-1.734748	0.072293
| 15> H  0.542941	-3.173011	0.472868
| 16> O  -1.467793	-1.160320	-1.475387
| 17> H  -1.932809	-0.540442	-0.870544
| 18> H  -0.968401	-1.740647	-0.858057
| 19> O  1.439735	1.078939	1.531782
| 20> H  1.904722	1.429727	2.302249
| 21> H  0.672298	0.512736	1.886776
| 22> O  -0.568827	-0.400981	2.177859
| 23> H  -1.309872	-0.005877	1.665614
| 24> H  -0.349072	-1.219406	1.677607
| 25> O  -2.183540	0.785823	0.336875
| 26> H  -3.002618	1.289707	0.432287
| 27> H  -1.462746	1.451914	0.077717
| 28> O  2.210882	-0.714509	-0.395744
| 29> H  2.147308	-0.026094	0.304082
| 30> H  1.776984	-0.295948	-1.172895
| 31> O  0.493792	0.380696	-2.228773
| 32> H  0.553168	0.454884	-3.190065
| 33> H  -0.289993	-0.231990	-2.034452
| 34> **                         ****END OF INPUT****

CARTESIAN COORDINATES (ANGSTROEM)
---------------------------------
  O     -0.170086    2.277273   -0.324506
  H      0.136181    1.787329   -1.119694
  H      0.495244    2.050991    0.363862
  O      0.256198   -2.256047    0.368243
  H      1.076304   -1.734748    0.072293
  H      0.542941   -3.173011    0.472868
  O     -1.467793   -1.160320   -1.475387
  H     -1.932809   -0.540442   -0.870544
  H     -0.968401   -1.740647   -0.858057
  O      1.439735    1.078939    1.531782
  H      1.904722    1.429727    2.302249
  H      0.672298    0.512736    1.886776
  O     -0.568827   -0.400981    2.177859
  H     -1.309872   -0.005877    1.665614
  H     -0.349072   -1.219406    1.677607
  O     -2.183540    0.785823    0.336875
  H     -3.002618    1.289707    0.432287
  H     -1.462746    1.451914    0.077717
  O      2.210882   -0.714509   -0.395744
  H      2.147308   -0.026094    0.304082
  H      1.776984   -0.295948   -1.172895
  O      0.493792    0.380696   -2.228773
  H      0.553168    0.454884   -3.190065
  H     -0.289993   -0.231990   -2.034452

 Total Charge           Charge          ....    0
 Multiplicity           Mult            ....    1
 Number of Electrons    NEL             ....   80
 Basis Dimension        Dim             ....  376

ORBITAL ENERGIES
----------------

  NO   OCC          E(Eh)            E(eV)
   0   2.0000     -19.248675      -523.7831
   1   2.0000     -19.248122      -523.7680
   2   2.0000     -19.247691      -523.7563
   3   2.0000     -19.245648      -523.7007
   4   2.0000     -19.228717      -523.2400
   5   2.0000     -19.227794      -523.2149
   6   2.0000     -19.226653      -523.1838
   7   2.0000     -19.226614      -523.1828
   8   2.0000      -1.154098       -31.4046
   9   2.0000      -1.141321       -31.0569
  10   2.0000      -1.140389       -31.0316
  11   2.0000      -1.134966       -30.8840
  12   2.0000      -1.119698       -30.4685
  13   2.0000      -1.113730       -30.3061
  14   2.0000      -1.113231       -30.2926
  15   2.0000      -1.101600       -29.9761
  16   2.0000      -0.656259       -17.8577
  17   2.0000      -0.655038       -17.8245
  18   2.0000      -0.653725       -17.7888
  19   2.0000      -0.647734       -17.6257
  20   2.0000      -0.632468       -17.2103
  21   2.0000      -0.625601       -17.0235
  22   2.0000      -0.624347       -16.9894
  23   2.0000      -0.622954       -16.9514
  24   2.0000      -0.573370       -15.6022
  25   2.0000      -0.534836       -14.5536
  26   2.0000      -0.521948       -14.2029
  27   2.0000      -0.521523       -14.1913
  28   2.0000      -0.493297       -13.4233
  29   2.0000      -0.493041       -13.4163
  30   2.0000      -0.488178       -13.2840
  31   2.0000      -0.454235       -12.3604
  32   2.0000      -0.434109       -11.8127
  33   2.0000      -0.433777       -11.8037
  34   2.0000      -0.432651       -11.7730
  35   2.0000      -0.429729       -11.6935
  36   2.0000      -0.416204       -11.3255
  37   2.0000      -0.413950       -11.2642
  38   2.0000      -0.412283       -11.2188
  39   2.0000      -0.412154       -11.2153
  40   0.0000       0.056755         1.5444
  41   0.0000       0.079457         2.1621
  42   0.0000       0.080037         2.1779
  43   0.0000       0.083320         2.2673
  44   0.0000       0.120069         3.2672

MULLIKEN ATOMIC CHARGES
-----------------------
   0 O :   -0.732589
   1 H :    0.398718
   2 H :    0.406939
   3 O :   -0.849776
   4 H :    0.405863
   5 H :    0.358559
   6 O :   -0.716586
   7 H :    0.403490
   8 H :    0.400197
   9 O :   -0.845518
  10 H :    0.357303
  11 H :    0.414956
  12 O :   -0.741746
  13 H :    0.406625
  14 H :    0.403869
  15 O :   -0.842446
  16 H :    0.357862
  17 H :    0.411534
  18 O :   -0.721807
  19 H :    0.406761
  20 H :    0.403603
  21 O :   -0.852944
  22 H :    0.358632
  23 H :    0.408501
Sum of atomic charges:    0.0000000

LOEWDIN ATOMIC CHARGES
----------------------
   0 O :   -0.360862
   1 H :    0.193319
   2 H :    0.192071
   3 O :   -0.399241
   4 H :    0.189933
   5 H :    0.190640
   6 O :   -0.362911
   7 H :    0.192339
   8 H :    0.191964
   9 O :   -0.402427
  10 H :    0.189472
  11 H :    0.186224
  12 O :   -0.359925
  13 H :    0.190849
  14 H :    0.191040
  15 O :   -0.399560
  16 H :    0.190262
  17 H :    0.187866
  18 O :   -0.363044
  19 H :    0.191928
  20 H :    0.191339
  21 O :   -0.400690
  22 H :    0.190224
  23 H :    0.189189

  Mayer bond orders larger than 0.1
B(  0-O ,  1-H ) :   0.8539 B(  0-O ,  2-H ) :   0.8442 B(  0-O , 17-H ) :   0.1217
B(  3-O ,  4-H ) :   0.7466 B(  3-O ,  5-H ) :   0.8740 B(  4-H , 18-O ) :   0.1320
B(  6-O ,  7-H ) :   0.8515 B(  6-O ,  8-H ) :   0.8518 B(  6-O , 23-H ) :   0.1229
B(  9-O , 10-H ) :   0.8749 B(  9-O , 11-H ) :   0.7438 B( 11-H , 12-O ) :   0.1234
B( 12-O , 13-H ) :   0.8443 B( 12-O , 14-H ) :   0.8469 B( 15-O , 16-H ) :   0.8745
B( 15-O , 17-H ) :   0.7488 B( 18-O , 19-H ) :   0.8486 B( 18-O , 20-H ) :   0.8506
B( 21-O , 22-H ) :   0.8739 B( 21-O , 23-H ) :   0.7504

Dispersion correction           -0.012307003
FINAL SINGLE POINT ENERGY      -611.650053137435

DIPOLE MOMENT
-------------
                                X             Y             Z
Electronic contribution:     -0.00693      -0.00672      -0.00951
Nuclear contribution   :     -0.02587       0.02279       0.02410
                        -----------------------------------------
Total Dipole Moment    :     -0.03280       0.01606       0.01459
                        -----------------------------------------
Magnitude (a.u.)       :      0.03933
Magnitude (Debye)      :      0.09996

                             ****ORCA TERMINATED NORMALLY****
TOTAL RUN TIME: 0 days 0 hours 6 minutes 47 seconds 858 msec
