                         Program Version 3.0.3 - RELEASE   -
|  1> ! B3LYP Def2-TZVP def2-TZVP/J RIJCOSX TightSCF Grid4 D3BJ
|  2>
|  3> %pal nprocs 12 end
|  4>
|  5> %scf
|  6>         maxiter 400
|  7> end
|  8>
|  9> * xyz  0  1
| 10> O  -0.170086	2.277273	-0.324506
| 11> H  0.136181	1.787329	-1.119694
| 12> H  0.495244	2.050991	0.363862
| 13> O  0.256198	-2.256047	0.368243
| 14> H  1.076304	-1.734748	0.072293
| 15> H  0.542941	-3.173011	0.472868
| 16> O  -1.467793	-1.160320	-1.475387
| 17> H  -1.932809	-0.540442	-0.870544
| 18> H  -0.968401	-1.740647	-0.858057
| 19> O  1.439735	1.078939	1.531782
| 20> H  1.904722	1.429727	2.302249
| 21> H  0.672298	0.512736	1.886776
| 22> O  -0.568827	-0.400981	2.177859
| 23> H  -1.309872	-0.005877	1.665614
| 24> H  -0.349072	-1.219406	1.677607
| 25> O  -2.183540	0.785823	0.336875
| 26> H  -3.002618	1.289707	0.432287
| 27> H  -1.462746	1.451914	0.077717
| 28> O  2.210882	-0.714509	-0.395744
| 29> H  2.147308	-0.026094	0.304082
| 30> H  1.776984	-0.295948	-1.172895
| 31> O  0.493792	0.380696	-2.228773
| 32> H  0.553168	0.454884	-3.190065
| 33> H  -0.289993	-0.231990	-2.034452
| 34> **                         ****END OF INPUT****

CARTESIAN COORDINATES (ANGSTROEM)
---------------------------------
  O     -0.170086    2.277273   -0.324506
  H      0.136181    1.787329   -1.119694
  H      0.495244    2.050991    0.363862
  O      0.256198   -2.256047    0.368243
  H      1.076304   -1.734748    0.072293
  H      0.542941   -3.173011    0.472868
  O     -1.467793   -1.160320   -1.475387
  H     -1.932809   -0.540442   -0.870544
  H     -0.968401   -1.740647   -0.858057
  O      1.439735    1.078939    1.531782
  H      1.904722    1.429727    2.302249
  H      0.672298    0.512736    1.886776
  O     -0.568827   -0.400981    2.177859
  H     -1.309872   -0.005877    1.665614
  H     -0.349072   -1.219406    1.677607
  O     -2.183540    0.785823    0.336875
  H     -3.002618    1.289707    0.432287
  H     -1.462746    1.451914    0.077717
  O      2.210882   -0.714509   -0.395744
  H      2.147308   -0.026094    0.304082
  H      1.776984   -0.295948   -1.172895
  O      0.493792    0.380696   -2.228773
  H      0.553168    0.454884   -3.190065
  H     -0.289993   -0.231990   -2.034452

 Total Charge           Charge          ....    0
 Multiplicity           Mult            ....    1
 Number of Electrons    NEL             ....   80
 Basis Dimension        Dim             ....  344

ORBITAL ENERGIES
----------------

  NO   OCC          E(Eh)            E(eV)
   0   2.0000     -19.137782      -520.7655
   1   2.0000     -19.137142      -520.7481
   2   2.0000     -19.136837      -520.7398
   3   2.0000     -19.134788      -520.6841
   4   2.0000     -19.117579      -520.2158
   5   2.0000     -19.116856      -520.1961
   6   2.0000     -19.115726      -520.1653
   7   2.0000     -19.115443      -520.1577
   8   2.0000      -1.035291       -28.1717
   9   2.0000      -1.023154       -27.8414
  10   2.0000      -1.022193       -27.8153
  11   2.0000      -1.016982       -27.6735
  12   2.0000      -1.001654       -27.2564
  13   2.0000      -0.995920       -27.1004
  14   2.0000      -0.995411       -27.0865
  15   2.0000      -0.984147       -26.7800
  16   2.0000      -0.550317       -14.9749
  17   2.0000      -0.549148       -14.9431
  18   2.0000      -0.547464       -14.8973
  19   2.0000      -0.542656       -14.7664
  20   2.0000      -0.525891       -14.3102
  21   2.0000      -0.519764       -14.1435
  22   2.0000      -0.518605       -14.1119
  23   2.0000      -0.517470       -14.0811
  24   2.0000      -0.464993       -12.6531
  25   2.0000      -0.428990       -11.6734
  26   2.0000      -0.418358       -11.3841
  27   2.0000      -0.418042       -11.3755
  28   2.0000      -0.389189       -10.5904
  29   2.0000      -0.388928       -10.5833
  30   2.0000      -0.385649       -10.4941
  31   2.0000      -0.352754        -9.5989
  32   2.0000      -0.332903        -9.0588
  33   2.0000      -0.332490        -9.0475
  34   2.0000      -0.331250        -9.0138
  35   2.0000      -0.328369        -8.9354
  36   2.0000      -0.314886        -8.5685
  37   2.0000      -0.312871        -8.5137
  38   2.0000      -0.311254        -8.4697
  39   2.0000      -0.311044        -8.4639
  40   0.0000       0.003471         0.0944
  41   0.0000       0.034226         0.9313
  42   0.0000       0.034859         0.9486
  43   0.0000       0.036167         0.9842
  44   0.0000       0.111899         3.0449

MULLIKEN ATOMIC CHARGES
-----------------------
   0 O :   -0.681646
   1 H :    0.355061
   2 H :    0.358021
   3 O :   -0.726396
   4 H :    0.361212
   5 H :    0.331472
   6 O :   -0.677721
   7 H :    0.356735
   8 H :    0.354983
   9 O :   -0.729858
  10 H :    0.329970
  11 H :    0.365958
  12 O :   -0.683181
  13 H :    0.357497
  14 H :    0.358057
  15 O :   -0.727498
  16 H :    0.330717
  17 H :    0.365493
  18 O :   -0.681118
  19 H :    0.358534
  20 H :    0.357246
  21 O :   -0.727113
  22 H :    0.331601
  23 H :    0.361975
Sum of atomic charges:   -0.0000000

LOEWDIN ATOMIC CHARGES
----------------------
   0 O :   -0.273261
   1 H :    0.141331
   2 H :    0.140021
   3 O :   -0.297804
   4 H :    0.138928
   5 H :    0.156819
   6 O :   -0.276113
   7 H :    0.140566
   8 H :    0.140226
   9 O :   -0.301357
  10 H :    0.155598
  11 H :    0.135462
  12 O :   -0.271662
  13 H :    0.138654
  14 H :    0.138963
  15 O :   -0.298537
  16 H :    0.156517
  17 H :    0.137183
  18 O :   -0.276051
  19 H :    0.139922
  20 H :    0.139515
  21 O :   -0.299845
  22 H :    0.156590
  23 H :    0.138335

  Mayer bond orders larger than 0.1
B(  0-O ,  1-H ) :   0.8317 B(  0-O ,  2-H ) :   0.8232 B(  0-O , 17-H ) :   0.1891
B(  3-O ,  4-H ) :   0.7260 B(  3-O ,  5-H ) :   0.8901 B(  4-H , 18-O ) :   0.1956
B(  6-O ,  7-H ) :   0.8308 B(  6-O ,  8-H ) :   0.8304 B(  6-O , 23-H ) :   0.1916
B(  9-O , 10-H ) :   0.8908 B(  9-O , 11-H ) :   0.7220 B( 11-H , 12-O ) :   0.1941
B( 12-O , 13-H ) :   0.8231 B( 12-O , 14-H ) :   0.8248 B( 15-O , 16-H ) :   0.8903
B( 15-O , 17-H ) :   0.7270 B( 18-O , 19-H ) :   0.8270 B( 18-O , 20-H ) :   0.8278
B( 21-O , 22-H ) :   0.8902 B( 21-O , 23-H ) :   0.7290

Dispersion correction           -0.025247712
FINAL SINGLE POINT ENERGY      -611.553848309222

DIPOLE MOMENT
-------------
                                X             Y             Z
Electronic contribution:     -0.00651      -0.00702      -0.01104
Nuclear contribution   :     -0.02587       0.02279       0.02410
                        -----------------------------------------
Total Dipole Moment    :     -0.03238       0.01577       0.01306
                        -----------------------------------------
Magnitude (a.u.)       :      0.03831
Magnitude (Debye)      :      0.09737

                             ****ORCA TERMINATED NORMALLY****
TOTAL RUN TIME: 0 days 0 hours 1 minutes 6 seconds 528 msec
