                         Program Version 3.0.3 - RELEASE   -
|  1> ! wB97X-D3 Def2-TZVP def2-TZVP/J RIJCOSX TightSCF Grid4 COSMO
|  2>
|  3> %pal nprocs 12 end
|  4>
|  5> %scf
|  6>         maxiter 400
|  7> end
|  8>
|  9> %cosmo
| 10>         SMD true
| 11>         solvent "WATER"
| 12> end
| 13>
| 14> * xyz  0  1
| 15> O  -0.081123	2.278696	-0.336208
| 16> H  0.166909	1.709215	-1.101791
| 17> H  0.531144	1.985970	0.380442
| 18> O  0.262665	-2.194642	0.329439
| 19> H  1.096394	-1.714854	0.055475
| 20> H  0.520137	-3.121580	0.450077
| 21> O  -1.590289	-1.227129	-1.456661
| 22> H  -1.971665	-0.542475	-0.858885
| 23> H  -1.005524	-1.743201	-0.853628
| 24> O  1.440266	1.064030	1.550878
| 25> H  1.893183	1.445316	2.317870
| 26> H  0.680183	0.513552	1.913184
| 27> O  -0.613208	-0.434214	2.180645
| 28> H  -1.305976	-0.000625	1.627449
| 29> H  -0.338219	-1.208365	1.632425
| 30> O  -2.164356	0.782233	0.318547
| 31> H  -2.984852	1.286647	0.429085
| 32> H  -1.459255	1.450710	0.072411
| 33> O  2.302760	-0.612477	-0.412329
| 34> H  2.154632	0.028836	0.321892
| 35> H  1.768457	-0.249261	-1.157232
| 36> O  0.466534	0.327143	-2.194713
| 37> H  0.555559	0.443564	-3.152627
| 38> H  -0.324357	-0.267090	-2.055747
| 39> **                         ****END OF INPUT****

CARTESIAN COORDINATES (ANGSTROEM)
---------------------------------
  O     -0.081123    2.278696   -0.336208
  H      0.166909    1.709215   -1.101791
  H      0.531144    1.985970    0.380442
  O      0.262665   -2.194642    0.329439
  H      1.096394   -1.714854    0.055475
  H      0.520137   -3.121580    0.450077
  O     -1.590289   -1.227129   -1.456661
  H     -1.971665   -0.542475   -0.858885
  H     -1.005524   -1.743201   -0.853628
  O      1.440266    1.064030    1.550878
  H      1.893183    1.445316    2.317870
  H      0.680183    0.513552    1.913184
  O     -0.613208   -0.434214    2.180645
  H     -1.305976   -0.000625    1.627449
  H     -0.338219   -1.208365    1.632425
  O     -2.164356    0.782233    0.318547
  H     -2.984852    1.286647    0.429085
  H     -1.459255    1.450710    0.072411
  O      2.302760   -0.612477   -0.412329
  H      2.154632    0.028836    0.321892
  H      1.768457   -0.249261   -1.157232
  O      0.466534    0.327143   -2.194713
  H      0.555559    0.443564   -3.152627
  H     -0.324357   -0.267090   -2.055747

 Total Charge           Charge          ....    0
 Multiplicity           Mult            ....    1
 Number of Electrons    NEL             ....   80
 Basis Dimension        Dim             ....  344

ORBITAL ENERGIES
----------------

  NO   OCC          E(Eh)            E(eV)
   0   2.0000     -19.240220      -523.5530
   1   2.0000     -19.239777      -523.5410
   2   2.0000     -19.237645      -523.4829
   3   2.0000     -19.236222      -523.4442
   4   2.0000     -19.226203      -523.1716
   5   2.0000     -19.226168      -523.1706
   6   2.0000     -19.224951      -523.1375
   7   2.0000     -19.224782      -523.1329
   8   2.0000      -1.147845       -31.2344
   9   2.0000      -1.133128       -30.8340
  10   2.0000      -1.133005       -30.8306
  11   2.0000      -1.128360       -30.7042
  12   2.0000      -1.115595       -30.3569
  13   2.0000      -1.110762       -30.2254
  14   2.0000      -1.110559       -30.2198
  15   2.0000      -1.097247       -29.8576
  16   2.0000      -0.645613       -17.5680
  17   2.0000      -0.644050       -17.5255
  18   2.0000      -0.642735       -17.4897
  19   2.0000      -0.633919       -17.2498
  20   2.0000      -0.629154       -17.1202
  21   2.0000      -0.624323       -16.9887
  22   2.0000      -0.622688       -16.9442
  23   2.0000      -0.619024       -16.8445
  24   2.0000      -0.567781       -15.4501
  25   2.0000      -0.538138       -14.6435
  26   2.0000      -0.515034       -14.0148
  27   2.0000      -0.512786       -13.9536
  28   2.0000      -0.494226       -13.4486
  29   2.0000      -0.493612       -13.4319
  30   2.0000      -0.481163       -13.0931
  31   2.0000      -0.457189       -12.4407
  32   2.0000      -0.428296       -11.6545
  33   2.0000      -0.427870       -11.6429
  34   2.0000      -0.423888       -11.5346
  35   2.0000      -0.422543       -11.4980
  36   2.0000      -0.418153       -11.3785
  37   2.0000      -0.415407       -11.3038
  38   2.0000      -0.414695       -11.2844
  39   2.0000      -0.414418       -11.2769
  40   0.0000       0.100405         2.7322
  41   0.0000       0.148122         4.0306
  42   0.0000       0.148442         4.0393
  43   0.0000       0.150244         4.0884
  44   0.0000       0.210040         5.7155

MULLIKEN ATOMIC CHARGES
-----------------------
   0 O :   -0.761638
   1 H :    0.375821
   2 H :    0.378203
   3 O :   -0.770235
   4 H :    0.369069
   5 H :    0.407924
   6 O :   -0.759220
   7 H :    0.379287
   8 H :    0.377883
   9 O :   -0.781917
  10 H :    0.405829
  11 H :    0.378390
  12 O :   -0.761278
  13 H :    0.377675
  14 H :    0.379122
  15 O :   -0.776259
  16 H :    0.405949
  17 H :    0.375440
  18 O :   -0.765357
  19 H :    0.380401
  20 H :    0.378904
  21 O :   -0.773455
  22 H :    0.408812
  23 H :    0.370651
Sum of atomic charges:   -0.0000000

LOEWDIN ATOMIC CHARGES
----------------------
   0 O :   -0.322862
   1 H :    0.141632
   2 H :    0.139069
   3 O :   -0.281913
   4 H :    0.146660
   5 H :    0.187730
   6 O :   -0.329771
   7 H :    0.141976
   8 H :    0.142816
   9 O :   -0.290130
  10 H :    0.185066
  11 H :    0.140959
  12 O :   -0.318605
  13 H :    0.139864
  14 H :    0.140096
  15 O :   -0.288025
  16 H :    0.186171
  17 H :    0.143195
  18 O :   -0.331641
  19 H :    0.139183
  20 H :    0.139360
  21 O :   -0.284165
  22 H :    0.187481
  23 H :    0.145853

  Mayer bond orders larger than 0.1
B(  0-O ,  1-H ) :   0.8109 B(  0-O ,  2-H ) :   0.8003 B(  0-O , 17-H ) :   0.1451
B(  2-H ,  9-O ) :   0.1062 B(  3-O ,  4-H ) :   0.7659 B(  3-O ,  5-H ) :   0.8387
B(  3-O , 14-H ) :   0.1020 B(  4-H , 18-O ) :   0.1443 B(  6-O ,  7-H ) :   0.8105
B(  6-O ,  8-H ) :   0.8130 B(  6-O , 23-H ) :   0.1431 B(  9-O , 10-H ) :   0.8396
B(  9-O , 11-H ) :   0.7494 B( 11-H , 12-O ) :   0.1527 B( 12-O , 13-H ) :   0.8023
B( 12-O , 14-H ) :   0.8024 B( 13-H , 15-O ) :   0.1042 B( 15-O , 16-H ) :   0.8398
B( 15-O , 17-H ) :   0.7587 B( 18-O , 19-H ) :   0.8054 B( 18-O , 20-H ) :   0.8083
B( 21-O , 22-H ) :   0.8380 B( 21-O , 23-H ) :   0.7660

Dispersion correction           -0.012331715
FINAL SINGLE POINT ENERGY      -611.676918527708

DIPOLE MOMENT
-------------
                                X             Y             Z
Electronic contribution:     -0.02889      -0.01785      -0.00369
Nuclear contribution   :     -0.05806       0.04085       0.05094
                        -----------------------------------------
Total Dipole Moment    :     -0.08695       0.02300       0.04726
                        -----------------------------------------
Magnitude (a.u.)       :      0.10160
Magnitude (Debye)      :      0.25825

                             ****ORCA TERMINATED NORMALLY****
TOTAL RUN TIME: 0 days 0 hours 1 minutes 8 seconds 643 msec
