                         Program Version 3.0.3 - RELEASE   -
|  1> ! wB97X-D3 MA-Def2-TZVP def2-TZVP/J RIJCOSX TightSCF Grid4
|  2>
|  3> %pal nprocs 1 end
|  4>
|  5> %scf
|  6>         maxiter 400
|  7> end
|  8>
|  9> * xyz  0  1
| 10> O  -0.209608	2.285122	-0.370503
| 11> H  0.106562	1.759431	-1.160584
| 12> H  0.456319	2.032255	0.331890
| 13> O  0.222153	-2.230562	0.354191
| 14> H  1.075969	-1.696493	0.056429
| 15> H  0.506740	-3.155621	0.466550
| 16> O  -1.418812	-1.102467	-1.478223
| 17> H  -1.874780	-0.472971	-0.848067
| 18> H  -0.919583	-1.702411	-0.853486
| 19> O  1.373272	1.070446	1.454861
| 20> H  1.854469	1.450127	2.212041
| 21> H  0.609911	0.473217	1.859102
| 22> O  -0.541535	-0.427200	2.219434
| 23> H  -1.276250	-0.013026	1.682072
| 24> H  -0.316271	-1.238481	1.678743
| 25> O  -2.113687	0.752463	0.359076
| 26> H  -2.947653	1.243745	0.470721
| 27> H  -1.393373	1.454767	0.060570
| 28> O  2.168796	-0.754400	-0.372890
| 29> H  2.084532	-0.047828	0.330131
| 30> H  1.735260	-0.321266	-1.163246
| 31> O  0.521246	0.402432	-2.171659
| 32> H  0.590337	0.467773	-3.141470
| 33> H  -0.294014	-0.229051	-1.975684
| 34> **                         ****END OF INPUT****

CARTESIAN COORDINATES (ANGSTROEM)
---------------------------------
  O     -0.209608    2.285122   -0.370503
  H      0.106562    1.759431   -1.160584
  H      0.456319    2.032255    0.331890
  O      0.222153   -2.230562    0.354191
  H      1.075969   -1.696493    0.056429
  H      0.506740   -3.155621    0.466550
  O     -1.418812   -1.102467   -1.478223
  H     -1.874780   -0.472971   -0.848067
  H     -0.919583   -1.702411   -0.853486
  O      1.373272    1.070446    1.454861
  H      1.854469    1.450127    2.212041
  H      0.609911    0.473217    1.859102
  O     -0.541535   -0.427200    2.219434
  H     -1.276250   -0.013026    1.682072
  H     -0.316271   -1.238481    1.678743
  O     -2.113687    0.752463    0.359076
  H     -2.947653    1.243745    0.470721
  H     -1.393373    1.454767    0.060570
  O      2.168796   -0.754400   -0.372890
  H      2.084532   -0.047828    0.330131
  H      1.735260   -0.321266   -1.163246
  O      0.521246    0.402432   -2.171659
  H      0.590337    0.467773   -3.141470
  H     -0.294014   -0.229051   -1.975684

 Total Charge           Charge          ....    0
 Multiplicity           Mult            ....    1
 Number of Electrons    NEL             ....   80
 Basis Dimension        Dim             ....  376

ORBITAL ENERGIES
----------------

  NO   OCC          E(Eh)            E(eV)
   0   2.0000     -19.247537      -523.7521
   1   2.0000     -19.247479      -523.7505
   2   2.0000     -19.247186      -523.7425
   3   2.0000     -19.246816      -523.7325
   4   2.0000     -19.231026      -523.3028
   5   2.0000     -19.230790      -523.2964
   6   2.0000     -19.230766      -523.2957
   7   2.0000     -19.230418      -523.2863
   8   2.0000      -1.153406       -31.3858
   9   2.0000      -1.137385       -30.9498
  10   2.0000      -1.137244       -30.9460
  11   2.0000      -1.128735       -30.7145
  12   2.0000      -1.117736       -30.4152
  13   2.0000      -1.108994       -30.1773
  14   2.0000      -1.108786       -30.1716
  15   2.0000      -1.093981       -29.7687
  16   2.0000      -0.651196       -17.7199
  17   2.0000      -0.651107       -17.7175
  18   2.0000      -0.649607       -17.6767
  19   2.0000      -0.642776       -17.4908
  20   2.0000      -0.630573       -17.1588
  21   2.0000      -0.620126       -16.8745
  22   2.0000      -0.620066       -16.8729
  23   2.0000      -0.619293       -16.8518
  24   2.0000      -0.581309       -15.8182
  25   2.0000      -0.536753       -14.6058
  26   2.0000      -0.524365       -14.2687
  27   2.0000      -0.524240       -14.2653
  28   2.0000      -0.496434       -13.5086
  29   2.0000      -0.496198       -13.5022
  30   2.0000      -0.488772       -13.3002
  31   2.0000      -0.452964       -12.3258
  32   2.0000      -0.430874       -11.7247
  33   2.0000      -0.430409       -11.7120
  34   2.0000      -0.430344       -11.7103
  35   2.0000      -0.426412       -11.6033
  36   2.0000      -0.414980       -11.2922
  37   2.0000      -0.412459       -11.2236
  38   2.0000      -0.412362       -11.2209
  39   2.0000      -0.412087       -11.2135
  40   0.0000       0.056607         1.5403
  41   0.0000       0.079521         2.1639
  42   0.0000       0.079593         2.1658
  43   0.0000       0.084028         2.2865
  44   0.0000       0.120318         3.2740

MULLIKEN ATOMIC CHARGES
-----------------------
   0 O :   -0.720507
   1 H :    0.411303
   2 H :    0.411900
   3 O :   -0.876092
   4 H :    0.410006
   5 H :    0.359966
   6 O :   -0.721110
   7 H :    0.412973
   8 H :    0.412827
   9 O :   -0.876022
  10 H :    0.359876
  11 H :    0.411978
  12 O :   -0.719947
  13 H :    0.411654
  14 H :    0.412030
  15 O :   -0.875566
  16 H :    0.360201
  17 H :    0.412395
  18 O :   -0.719442
  19 H :    0.412314
  20 H :    0.413132
  21 O :   -0.875358
  22 H :    0.360379
  23 H :    0.411113
Sum of atomic charges:   -0.0000000

LOEWDIN ATOMIC CHARGES
----------------------
   0 O :   -0.363220
   1 H :    0.199190
   2 H :    0.199112
   3 O :   -0.423431
   4 H :    0.192150
   5 H :    0.194237
   6 O :   -0.362676
   7 H :    0.199115
   8 H :    0.199297
   9 O :   -0.422434
  10 H :    0.194161
  11 H :    0.192333
  12 O :   -0.362238
  13 H :    0.199199
  14 H :    0.199389
  15 O :   -0.422025
  16 H :    0.194358
  17 H :    0.192700
  18 O :   -0.362040
  19 H :    0.198944
  20 H :    0.198859
  21 O :   -0.422155
  22 H :    0.194454
  23 H :    0.192720

  Mayer bond orders larger than 0.1
B(  0-O ,  1-H ) :   0.8324 B(  0-O ,  2-H ) :   0.8320 B(  0-O , 17-H ) :   0.1769
B(  3-O ,  4-H ) :   0.7039 B(  3-O ,  5-H ) :   0.8710 B(  4-H , 18-O ) :   0.1811
B(  6-O ,  7-H ) :   0.8315 B(  6-O ,  8-H ) :   0.8326 B(  6-O , 23-H ) :   0.1787
B(  9-O , 10-H ) :   0.8708 B(  9-O , 11-H ) :   0.7049 B( 11-H , 12-O ) :   0.1780
B( 12-O , 13-H ) :   0.8324 B( 12-O , 14-H ) :   0.8315 B( 15-O , 16-H ) :   0.8706
B( 15-O , 17-H ) :   0.7055 B( 18-O , 19-H ) :   0.8320 B( 18-O , 20-H ) :   0.8318
B( 21-O , 22-H ) :   0.8706 B( 21-O , 23-H ) :   0.7052

Dispersion correction           -0.012648140
FINAL SINGLE POINT ENERGY      -611.638703548663

DIPOLE MOMENT
-------------
                                X             Y             Z
Electronic contribution:     -0.00192       0.00119      -0.00394
Nuclear contribution   :     -0.00456       0.01040       0.01426
                        -----------------------------------------
Total Dipole Moment    :     -0.00648       0.01159       0.01033
                        -----------------------------------------
Magnitude (a.u.)       :      0.01682
Magnitude (Debye)      :      0.04276

                             ****ORCA TERMINATED NORMALLY****
TOTAL RUN TIME: 0 days 0 hours 5 minutes 47 seconds 668 msec
