                         Program Version 3.0.3 - RELEASE   -
|  1> ! wB97X-D3 MA-Def2-TZVP def2-TZVP/J RIJCOSX TightSCF Grid4
|  2>
|  3> %pal nprocs 1 end
|  4>
|  5> %scf
|  6>         maxiter 400
|  7> end
|  8>
|  9> %cosmo
| 10>         SMD true
| 11>         solvent "WATER"
| 12> end
| 13>
| 14> * xyz  0  1
| 15> O  -0.181690	2.327180	-0.386723
| 16> H  0.102854	1.750384	-1.157158
| 17> H  0.450072	2.022552	0.331400
| 18> O  0.198815	-2.209437	0.353795
| 19> H  1.062136	-1.726714	0.065323
| 20> H  0.449560	-3.145337	0.482787
| 21> O  -1.457945	-1.133419	-1.478172
| 22> H  -1.869740	-0.469245	-0.848190
| 23> H  -0.911101	-1.694824	-0.852223
| 24> O  1.368298	1.067895	1.420901
| 25> H  1.874688	1.466264	2.155733
| 26> H  0.635454	0.493506	1.863059
| 27> O  -0.572993	-0.453527	2.243668
| 28> H  -1.268301	-0.009150	1.673018
| 29> H  -0.311919	-1.237201	1.673544
| 30> O  -2.098893	0.726064	0.359198
| 31> H  -2.951451	1.187850	0.482889
| 32> H  -1.426403	1.449157	0.067894
| 33> O  2.218705	-0.739246	-0.384268
| 34> H  2.080099	-0.050762	0.332841
| 35> H  1.728367	-0.325889	-1.156173
| 36> O  0.533876	0.407600	-2.139882
| 37> H  0.622075	0.511091	-3.107856
| 38> H  -0.274565	-0.214793	-1.995407
| 39> **                         ****END OF INPUT****

CARTESIAN COORDINATES (ANGSTROEM)
---------------------------------
  O     -0.181690    2.327180   -0.386723
  H      0.102854    1.750384   -1.157158
  H      0.450072    2.022552    0.331400
  O      0.198815   -2.209437    0.353795
  H      1.062136   -1.726714    0.065323
  H      0.449560   -3.145337    0.482787
  O     -1.457945   -1.133419   -1.478172
  H     -1.869740   -0.469245   -0.848190
  H     -0.911101   -1.694824   -0.852223
  O      1.368298    1.067895    1.420901
  H      1.874688    1.466264    2.155733
  H      0.635454    0.493506    1.863059
  O     -0.572993   -0.453527    2.243668
  H     -1.268301   -0.009150    1.673018
  H     -0.311919   -1.237201    1.673544
  O     -2.098893    0.726064    0.359198
  H     -2.951451    1.187850    0.482889
  H     -1.426403    1.449157    0.067894
  O      2.218705   -0.739246   -0.384268
  H      2.080099   -0.050762    0.332841
  H      1.728367   -0.325889   -1.156173
  O      0.533876    0.407600   -2.139882
  H      0.622075    0.511091   -3.107856
  H     -0.274565   -0.214793   -1.995407

 Total Charge           Charge          ....    0
 Multiplicity           Mult            ....    1
 Number of Electrons    NEL             ....   80
 Basis Dimension        Dim             ....  376

ORBITAL ENERGIES
----------------

  NO   OCC          E(Eh)            E(eV)
   0   2.0000     -19.240053      -523.5485
   1   2.0000     -19.239949      -523.5456
   2   2.0000     -19.239934      -523.5452
   3   2.0000     -19.239670      -523.5380
   4   2.0000     -19.228861      -523.2439
   5   2.0000     -19.228841      -523.2434
   6   2.0000     -19.228578      -523.2362
   7   2.0000     -19.228546      -523.2353
   8   2.0000      -1.147235       -31.2178
   9   2.0000      -1.130254       -30.7558
  10   2.0000      -1.130206       -30.7545
  11   2.0000      -1.123998       -30.5855
  12   2.0000      -1.111922       -30.2569
  13   2.0000      -1.105577       -30.0843
  14   2.0000      -1.105509       -30.0824
  15   2.0000      -1.089596       -29.6494
  16   2.0000      -0.640004       -17.4154
  17   2.0000      -0.639859       -17.4115
  18   2.0000      -0.639402       -17.3990
  19   2.0000      -0.630006       -17.1433
  20   2.0000      -0.626023       -17.0350
  21   2.0000      -0.615767       -16.7559
  22   2.0000      -0.615592       -16.7511
  23   2.0000      -0.615006       -16.7352
  24   2.0000      -0.574834       -15.6420
  25   2.0000      -0.539383       -14.6774
  26   2.0000      -0.520166       -14.1544
  27   2.0000      -0.519598       -14.1390
  28   2.0000      -0.495855       -13.4929
  29   2.0000      -0.495109       -13.4726
  30   2.0000      -0.482183       -13.1209
  31   2.0000      -0.455595       -12.3974
  32   2.0000      -0.425082       -11.5671
  33   2.0000      -0.424802       -11.5594
  34   2.0000      -0.423023       -11.5110
  35   2.0000      -0.419717       -11.4211
  36   2.0000      -0.418056       -11.3759
  37   2.0000      -0.414130       -11.2691
  38   2.0000      -0.414013       -11.2659
  39   2.0000      -0.411603       -11.2003
  40   0.0000       0.066895         1.8203
  41   0.0000       0.095500         2.5987
  42   0.0000       0.095717         2.6046
  43   0.0000       0.099989         2.7208
  44   0.0000       0.121676         3.3110

MULLIKEN ATOMIC CHARGES
-----------------------
   0 O :   -0.806309
   1 H :    0.422894
   2 H :    0.423274
   3 O :   -0.886240
   4 H :    0.425306
   5 H :    0.417263
   6 O :   -0.806063
   7 H :    0.425276
   8 H :    0.424546
   9 O :   -0.887917
  10 H :    0.417048
  11 H :    0.429369
  12 O :   -0.805975
  13 H :    0.423731
  14 H :    0.423809
  15 O :   -0.886952
  16 H :    0.417450
  17 H :    0.428581
  18 O :   -0.804791
  19 H :    0.423449
  20 H :    0.425009
  21 O :   -0.886543
  22 H :    0.417427
  23 H :    0.426359
Sum of atomic charges:   -0.0000000

LOEWDIN ATOMIC CHARGES
----------------------
   0 O :   -0.421385
   1 H :    0.199578
   2 H :    0.199450
   3 O :   -0.398597
   4 H :    0.199410
   5 H :    0.219301
   6 O :   -0.419207
   7 H :    0.199779
   8 H :    0.199593
   9 O :   -0.398329
  10 H :    0.219112
  11 H :    0.199368
  12 O :   -0.418672
  13 H :    0.199780
  14 H :    0.199745
  15 O :   -0.397619
  16 H :    0.219442
  17 H :    0.199844
  18 O :   -0.420195
  19 H :    0.199472
  20 H :    0.199455
  21 O :   -0.398064
  22 H :    0.219340
  23 H :    0.199398

  Mayer bond orders larger than 0.1
B(  0-O ,  1-H ) :   0.8025 B(  0-O ,  2-H ) :   0.8024 B(  0-O , 17-H ) :   0.1134
B(  3-O ,  4-H ) :   0.7404 B(  3-O ,  5-H ) :   0.8300 B(  4-H , 18-O ) :   0.1183
B(  6-O ,  7-H ) :   0.8015 B(  6-O ,  8-H ) :   0.8028 B(  6-O , 23-H ) :   0.1171
B(  9-O , 10-H ) :   0.8300 B(  9-O , 11-H ) :   0.7401 B( 11-H , 12-O ) :   0.1143
B( 12-O , 13-H ) :   0.8027 B( 12-O , 14-H ) :   0.8019 B( 15-O , 16-H ) :   0.8297
B( 15-O , 17-H ) :   0.7416 B( 18-O , 19-H ) :   0.8020 B( 18-O , 20-H ) :   0.8019
B( 21-O , 22-H ) :   0.8298 B( 21-O , 23-H ) :   0.7408

Dispersion correction           -0.012601795
FINAL SINGLE POINT ENERGY      -611.670498526131

DIPOLE MOMENT
-------------
                                X             Y             Z
Electronic contribution:     -0.00961      -0.00254       0.00238
Nuclear contribution   :     -0.02041       0.01720       0.02867
                        -----------------------------------------
Total Dipole Moment    :     -0.03002       0.01467       0.03105
                        -----------------------------------------
Magnitude (a.u.)       :      0.04561
Magnitude (Debye)      :      0.11593

                             ****ORCA TERMINATED NORMALLY****
TOTAL RUN TIME: 0 days 0 hours 7 minutes 1 seconds 28 msec
