                         Program Version 4.2.0 -  RELEASE  -
|  1> ! MP2 def2-TZVP EnGrad TightSCF FrozenCore
|  2>
|  3> %pal
|  4>     nprocs 12
|  5> end
|  6>
|  7> %maxcore 8000
|  8>
|  9> %scf
| 10>     ConvForced true
| 11> end
| 12>
| 13> *xyz 0 1
| 14> C     4.545152     1.191309     0.105741
| 15> H     5.048439     1.369772     1.059410
| 16> H     3.533309     1.604943     0.145560
| 17> H     5.107751     1.685086    -0.690685
| 18> C     4.462004    -0.243590    -0.155746
| 19> N     4.385854    -1.383771    -0.364119
| 20> C     0.992529    -1.908680    -0.763639
| 21> H     0.274188    -2.391859    -0.094887
| 22> H     1.980987    -2.364375    -0.656731
| 23> H     0.637023    -2.010033    -1.791687
| 24> C     1.079583    -0.493599    -0.418798
| 25> N     1.170025     0.631164    -0.135039
| 26> C    -1.071137     2.324072    -1.761780
| 27> H    -0.076525     2.689208    -1.496054
| 28> H    -1.589274     3.063036    -2.378498
| 29> H    -0.963677     1.388111    -2.317788
| 30> C    -1.837640     2.064432    -0.546430
| 31> N    -2.461588     1.862219     0.413172
| 32> C    -3.781722    -1.287961    -0.197673
| 33> H    -3.825599    -0.392997     0.429996
| 34> H    -3.560237    -2.148082     0.438169
| 35> H    -4.739190    -1.431865    -0.704996
| 36> C    -2.716650    -1.120204    -1.182153
| 37> N    -1.879949    -0.977747    -1.976276
| 38> C    -0.624735     0.813519     2.825399
| 39> H    -1.517684     1.428245     2.959655
| 40> H     0.047847     1.323366     2.129525
| 41> H    -0.122943     0.665263     3.785143
| 42> C    -1.000428    -0.476968     2.255036
| 43> N    -1.288078    -1.510693     1.808565
| 44> *
| 45>
| 46>                          ****END OF INPUT****

CARTESIAN COORDINATES (ANGSTROEM)
---------------------------------
  C      4.545152    1.191309    0.105741
  H      5.048439    1.369772    1.059410
  H      3.533309    1.604943    0.145560
  H      5.107751    1.685086   -0.690685
  C      4.462004   -0.243590   -0.155746
  N      4.385854   -1.383771   -0.364119
  C      0.992529   -1.908680   -0.763639
  H      0.274188   -2.391859   -0.094887
  H      1.980987   -2.364375   -0.656731
  H      0.637023   -2.010033   -1.791687
  C      1.079583   -0.493599   -0.418798
  N      1.170025    0.631164   -0.135039
  C     -1.071137    2.324072   -1.761780
  H     -0.076525    2.689208   -1.496054
  H     -1.589274    3.063036   -2.378498
  H     -0.963677    1.388111   -2.317788
  C     -1.837640    2.064432   -0.546430
  N     -2.461588    1.862219    0.413172
  C     -3.781722   -1.287961   -0.197673
  H     -3.825599   -0.392997    0.429996
  H     -3.560237   -2.148082    0.438169
  H     -4.739190   -1.431865   -0.704996
  C     -2.716650   -1.120204   -1.182153
  N     -1.879949   -0.977747   -1.976276
  C     -0.624735    0.813519    2.825399
  H     -1.517684    1.428245    2.959655
  H      0.047847    1.323366    2.129525
  H     -0.122943    0.665263    3.785143
  C     -1.000428   -0.476968    2.255036
  N     -1.288078   -1.510693    1.808565

 Total Charge           Charge          ....    0
 Multiplicity           Mult            ....    1
 Number of Electrons    NEL             ....  110
 Basis Dimension        Dim             ....  555

ORBITAL ENERGIES
----------------

  NO   OCC          E(Eh)            E(eV)
   0   2.0000     -15.568273      -423.6342
   1   2.0000     -15.564110      -423.5210
   2   2.0000     -15.562446      -423.4757
   3   2.0000     -15.561650      -423.4540
   4   2.0000     -15.561263      -423.4435
   5   2.0000     -11.280280      -306.9520
   6   2.0000     -11.279281      -306.9249
   7   2.0000     -11.279129      -306.9207
   8   2.0000     -11.277216      -306.8687
   9   2.0000     -11.276811      -306.8576
  10   2.0000     -11.275554      -306.8234
  11   2.0000     -11.264104      -306.5118
  12   2.0000     -11.263782      -306.5031
  13   2.0000     -11.261464      -306.4400
  14   2.0000     -11.250862      -306.1515
  15   2.0000      -1.216825       -33.1115
  16   2.0000      -1.215237       -33.0683
  17   2.0000      -1.212381       -32.9906
  18   2.0000      -1.210421       -32.9372
  19   2.0000      -1.210172       -32.9305
  20   2.0000      -1.032218       -28.0881
  21   2.0000      -1.024060       -27.8661
  22   2.0000      -1.022998       -27.8372
  23   2.0000      -1.020343       -27.7649
  24   2.0000      -1.013899       -27.5896
  25   2.0000      -0.691326       -18.8119
  26   2.0000      -0.684169       -18.6172
  27   2.0000      -0.682416       -18.5695
  28   2.0000      -0.679656       -18.4944
  29   2.0000      -0.673827       -18.3358
  30   2.0000      -0.625485       -17.0203
  31   2.0000      -0.621774       -16.9193
  32   2.0000      -0.621687       -16.9170
  33   2.0000      -0.617545       -16.8043
  34   2.0000      -0.614597       -16.7240
  35   2.0000      -0.613293       -16.6886
  36   2.0000      -0.611470       -16.6389
  37   2.0000      -0.603807       -16.4304
  38   2.0000      -0.600549       -16.3418
  39   2.0000      -0.597410       -16.2563
  40   2.0000      -0.556386       -15.1400
  41   2.0000      -0.553584       -15.0638
  42   2.0000      -0.552165       -15.0252
  43   2.0000      -0.550865       -14.9898
  44   2.0000      -0.548872       -14.9356
  45   2.0000      -0.464606       -12.6426
  46   2.0000      -0.459428       -12.5017
  47   2.0000      -0.459157       -12.4943
  48   2.0000      -0.457791       -12.4571
  49   2.0000      -0.455814       -12.4033
  50   2.0000      -0.454736       -12.3740
  51   2.0000      -0.452711       -12.3189
  52   2.0000      -0.450277       -12.2527
  53   2.0000      -0.448201       -12.1962
  54   2.0000      -0.447792       -12.1850
  55   0.0000       0.124079         3.3764
  56   0.0000       0.140273         3.8170
  57   0.0000       0.154103         4.1934
  58   0.0000       0.156722         4.2646
  59   0.0000       0.167791         4.5658

MULLIKEN ATOMIC CHARGES
-----------------------
   0 C :   -0.290855
   1 H :    0.166286
   2 H :    0.195424
   3 H :    0.166594
   4 C :   -0.111688
   5 N :   -0.128580
   6 C :   -0.295860
   7 H :    0.189719
   8 H :    0.202732
   9 H :    0.179015
  10 C :   -0.004030
  11 N :   -0.267785
  12 C :   -0.284052
  13 H :    0.174305
  14 H :    0.168305
  15 H :    0.197410
  16 C :   -0.075813
  17 N :   -0.180896
  18 C :   -0.286607
  19 H :    0.192318
  20 H :    0.183935
  21 H :    0.167556
  22 C :   -0.071237
  23 N :   -0.185355
  24 C :   -0.284515
  25 H :    0.182960
  26 H :    0.186410
  27 H :    0.167924
  28 C :   -0.073732
  29 N :   -0.179888
Sum of atomic charges:   -0.0000000

LOEWDIN ATOMIC CHARGES
----------------------
   0 C :   -0.283341
   1 H :    0.149072
   2 H :    0.152860
   3 H :    0.149275
   4 C :   -0.207157
   5 N :    0.036838
   6 C :   -0.281630
   7 H :    0.154493
   8 H :    0.152791
   9 H :    0.153491
  10 C :   -0.188470
  11 N :    0.012917
  12 C :   -0.285138
  13 H :    0.151069
  14 H :    0.146735
  15 H :    0.155809
  16 C :   -0.198780
  17 N :    0.029432
  18 C :   -0.284955
  19 H :    0.155064
  20 H :    0.153649
  21 H :    0.146390
  22 C :   -0.197751
  23 N :    0.027932
  24 C :   -0.285972
  25 H :    0.153282
  26 H :    0.153395
  27 H :    0.146269
  28 C :   -0.198797
  29 N :    0.031226

  Mayer bond orders larger than 0.100000
B(  0-C ,  1-H ) :   0.9174 B(  0-C ,  2-H ) :   0.9055 B(  0-C ,  3-H ) :   0.9174
B(  0-C ,  4-C ) :   0.9003 B(  4-C ,  5-N ) :   2.7870 B(  6-C ,  7-H ) :   0.9101
B(  6-C ,  8-H ) :   0.8979 B(  6-C ,  9-H ) :   0.9114 B(  6-C , 10-C ) :   0.8897
B( 10-C , 11-N ) :   2.6218 B( 12-C , 13-H ) :   0.9155 B( 12-C , 14-H ) :   0.9105
B( 12-C , 15-H ) :   0.9081 B( 12-C , 16-C ) :   0.8952 B( 16-C , 17-N ) :   2.7344
B( 18-C , 19-H ) :   0.9102 B( 18-C , 20-H ) :   0.9142 B( 18-C , 21-H ) :   0.9100
B( 18-C , 22-C ) :   0.8950 B( 22-C , 23-N ) :   2.7270 B( 24-C , 25-H ) :   0.9146
B( 24-C , 26-H ) :   0.9112 B( 24-C , 27-H ) :   0.9106 B( 24-C , 28-C ) :   0.8962
B( 28-C , 29-N ) :   2.7294

MP2 TOTAL ENERGY:     -662.459362045 Eh
FINAL SINGLE POINT ENERGY      -662.459362045397

DIPOLE MOMENT
-------------
                                X             Y             Z
Electronic contribution:     -0.18745      -3.12533      -0.56678
Nuclear contribution   :      0.23549       4.49853       0.81989
                        -----------------------------------------
Total Dipole Moment    :      0.04804       1.37320       0.25311
                        -----------------------------------------
Magnitude (a.u.)       :      1.39716
Magnitude (Debye)      :      3.55131

Rotational constants in cm-1:     0.021567     0.009400     0.009258
Rotational constants in MHz :   646.548135   281.817421   277.543688

                             ****ORCA TERMINATED NORMALLY****
TOTAL RUN TIME: 0 days 0 hours 29 minutes 9 seconds 447 msec
