                         Program Version 4.2.0 -  RELEASE  -
|  1> # 12h2o.su.etal.mol0,1,2,5,10,11
|  2> ! MP2 def2-TZVP EnGrad TightSCF
|  3>
|  4> %pal
|  5>     nprocs 6
|  6> end
|  7>
|  8> %maxcore 8000
|  9>
| 10> %scf
| 11>     ConvForced true
| 12> end
| 13>
| 14> *xyz 0 1
| 15> O   1.794470000   0.923410000   2.768350000
| 16> H   2.338250000   1.359750000   3.430940000
| 17> H   0.879480000   1.303000000   2.865760000
| 18> O  -1.794470000  -0.923410000   2.768350000
| 19> H  -2.338250000  -1.359750000   3.430940000
| 20> H  -0.879480000  -1.303000000   2.865760000
| 21> O   0.923410000  -1.794470000  -2.768350000
| 22> H   1.359750000  -2.338250000  -3.430940000
| 23> H   1.303000000  -0.879480000  -2.865760000
| 24> O   0.885520000  -1.737840000   0.052730000
| 25> H   1.284090000  -0.839590000   0.017130000
| 26> H   1.032320000  -2.090180000  -0.841890000
| 27> O  -0.923410000   1.794470000  -2.768350000
| 28> H  -1.359750000   2.338250000  -3.430940000
| 29> H  -1.303000000   0.879480000  -2.865760000
| 30> O  -0.741530000   1.752130000   2.896280000
| 31> H  -0.920500000   2.036450000   1.984040000
| 32> H  -1.242140000   0.921210000   2.984230000
| 33> *
| 34>
| 35>                          ****END OF INPUT****

CARTESIAN COORDINATES (ANGSTROEM)
---------------------------------
  O      1.794470    0.923410    2.768350
  H      2.338250    1.359750    3.430940
  H      0.879480    1.303000    2.865760
  O     -1.794470   -0.923410    2.768350
  H     -2.338250   -1.359750    3.430940
  H     -0.879480   -1.303000    2.865760
  O      0.923410   -1.794470   -2.768350
  H      1.359750   -2.338250   -3.430940
  H      1.303000   -0.879480   -2.865760
  O      0.885520   -1.737840    0.052730
  H      1.284090   -0.839590    0.017130
  H      1.032320   -2.090180   -0.841890
  O     -0.923410    1.794470   -2.768350
  H     -1.359750    2.338250   -3.430940
  H     -1.303000    0.879480   -2.865760
  O     -0.741530    1.752130    2.896280
  H     -0.920500    2.036450    1.984040
  H     -1.242140    0.921210    2.984230

 Total Charge           Charge          ....    0
 Multiplicity           Mult            ....    1
 Number of Electrons    NEL             ....   60
 Basis Dimension        Dim             ....  258

ORBITAL ENERGIES
----------------

  NO   OCC          E(Eh)            E(eV)
   0   2.0000     -20.587796      -560.2224
   1   2.0000     -20.575759      -559.8949
   2   2.0000     -20.567635      -559.6738
   3   2.0000     -20.556918      -559.3822
   4   2.0000     -20.520248      -558.3843
   5   2.0000     -20.507564      -558.0392
   6   2.0000      -1.365621       -37.1604
   7   2.0000      -1.355810       -36.8935
   8   2.0000      -1.343358       -36.5546
   9   2.0000      -1.342938       -36.5432
  10   2.0000      -1.299349       -35.3571
  11   2.0000      -1.289352       -35.0851
  12   2.0000      -0.732480       -19.9318
  13   2.0000      -0.722462       -19.6592
  14   2.0000      -0.711032       -19.3482
  15   2.0000      -0.704802       -19.1786
  16   2.0000      -0.676745       -18.4152
  17   2.0000      -0.669567       -18.2198
  18   2.0000      -0.602739       -16.4013
  19   2.0000      -0.601327       -16.3630
  20   2.0000      -0.579329       -15.7643
  21   2.0000      -0.576787       -15.6952
  22   2.0000      -0.551995       -15.0205
  23   2.0000      -0.537653       -14.6303
  24   2.0000      -0.518721       -14.1151
  25   2.0000      -0.516112       -14.0441
  26   2.0000      -0.510920       -13.9028
  27   2.0000      -0.489758       -13.3270
  28   2.0000      -0.466027       -12.6813
  29   2.0000      -0.458240       -12.4693
  30   0.0000       0.100054         2.7226
  31   0.0000       0.123902         3.3715
  32   0.0000       0.135135         3.6772
  33   0.0000       0.159743         4.3468
  34   0.0000       0.182931         4.9778

MULLIKEN ATOMIC CHARGES
-----------------------
   0 O :   -0.734527
   1 H :    0.321292
   2 H :    0.364533
   3 O :   -0.702376
   4 H :    0.347979
   5 H :    0.379454
   6 O :   -0.697217
   7 H :    0.349331
   8 H :    0.356977
   9 O :   -0.703122
  10 H :    0.332214
  11 H :    0.360426
  12 O :   -0.690522
  13 H :    0.340104
  14 H :    0.351021
  15 O :   -0.704012
  16 H :    0.355032
  17 H :    0.373412
Sum of atomic charges:   -0.0000000

LOEWDIN ATOMIC CHARGES
----------------------
   0 O :   -0.374688
   1 H :    0.146958
   2 H :    0.141193
   3 O :   -0.310410
   4 H :    0.161927
   5 H :    0.195184
   6 O :   -0.311834
   7 H :    0.162108
   8 H :    0.185459
   9 O :   -0.350037
  10 H :    0.166957
  11 H :    0.146814
  12 O :   -0.341545
  13 H :    0.158675
  14 H :    0.183145
  15 O :   -0.285317
  16 H :    0.171898
  17 H :    0.153515

  Mayer bond orders larger than 0.100000
B(  0-O ,  1-H ) :   0.8622 B(  0-O ,  2-H ) :   0.7754 B(  3-O ,  4-H ) :   0.8439
B(  3-O ,  5-H ) :   0.8150 B(  6-O ,  7-H ) :   0.8430 B(  6-O ,  8-H ) :   0.8303
B(  9-O , 10-H ) :   0.8505 B(  9-O , 11-H ) :   0.8251 B( 12-O , 13-H ) :   0.8521
B( 12-O , 14-H ) :   0.8383 B( 15-O , 16-H ) :   0.8397 B( 15-O , 17-H ) :   0.7953

MP2 TOTAL ENERGY:     -457.906560350 Eh
FINAL SINGLE POINT ENERGY      -457.906560350116

DIPOLE MOMENT
-------------
                                X             Y             Z
Electronic contribution:     -0.37946      -0.15416       0.04234
Nuclear contribution   :     -0.11171      -0.00057      -1.46039
                        -----------------------------------------
Total Dipole Moment    :     -0.49117      -0.15474      -1.41805
                        -----------------------------------------
Magnitude (a.u.)       :      1.50866
Magnitude (Debye)      :      3.83471

Rotational constants in cm-1:     0.040890     0.019428     0.017249
Rotational constants in MHz :  1225.861449   582.426066   517.098944

                             ****ORCA TERMINATED NORMALLY****
TOTAL RUN TIME: 0 days 0 hours 0 minutes 46 seconds 209 msec
