                         Program Version 4.2.0 -  RELEASE  -
|  1> # 12h2o.su.etal.mol1,4,10,11
|  2> ! MP2 def2-TZVP EnGrad TightSCF
|  3>
|  4> %pal
|  5>     nprocs 6
|  6> end
|  7>
|  8> %maxcore 8000
|  9>
| 10> %scf
| 11>     ConvForced true
| 12> end
| 13>
| 14> *xyz 0 1
| 15> O  -1.794470000  -0.923410000   2.768350000
| 16> H  -2.338250000  -1.359750000   3.430940000
| 17> H  -0.879480000  -1.303000000   2.865760000
| 18> O  -0.885520000   1.737840000   0.052730000
| 19> H  -1.032320000   2.090180000  -0.841890000
| 20> H  -1.284090000   0.839590000   0.017130000
| 21> O  -0.923410000   1.794470000  -2.768350000
| 22> H  -1.359750000   2.338250000  -3.430940000
| 23> H  -1.303000000   0.879480000  -2.865760000
| 24> O  -0.741530000   1.752130000   2.896280000
| 25> H  -0.920500000   2.036450000   1.984040000
| 26> H  -1.242140000   0.921210000   2.984230000
| 27> *
| 28>
| 29>                          ****END OF INPUT****

CARTESIAN COORDINATES (ANGSTROEM)
---------------------------------
  O     -1.794470   -0.923410    2.768350
  H     -2.338250   -1.359750    3.430940
  H     -0.879480   -1.303000    2.865760
  O     -0.885520    1.737840    0.052730
  H     -1.032320    2.090180   -0.841890
  H     -1.284090    0.839590    0.017130
  O     -0.923410    1.794470   -2.768350
  H     -1.359750    2.338250   -3.430940
  H     -1.303000    0.879480   -2.865760
  O     -0.741530    1.752130    2.896280
  H     -0.920500    2.036450    1.984040
  H     -1.242140    0.921210    2.984230

 Total Charge           Charge          ....    0
 Multiplicity           Mult            ....    1
 Number of Electrons    NEL             ....   40
 Basis Dimension        Dim             ....  172

ORBITAL ENERGIES
----------------

  NO   OCC          E(Eh)            E(eV)
   0   2.0000     -20.595496      -560.4319
   1   2.0000     -20.585729      -560.1662
   2   2.0000     -20.545719      -559.0774
   3   2.0000     -20.491057      -557.5900
   4   2.0000      -1.373364       -37.3711
   5   2.0000      -1.363341       -37.0984
   6   2.0000      -1.326980       -36.1090
   7   2.0000      -1.276427       -34.7333
   8   2.0000      -0.740278       -20.1440
   9   2.0000      -0.730395       -19.8751
  10   2.0000      -0.696444       -18.9512
  11   2.0000      -0.654150       -17.8003
  12   2.0000      -0.611714       -16.6456
  13   2.0000      -0.601021       -16.3546
  14   2.0000      -0.572576       -15.5806
  15   2.0000      -0.540196       -14.6995
  16   2.0000      -0.527702       -14.3595
  17   2.0000      -0.505864       -13.7653
  18   2.0000      -0.489227       -13.3125
  19   2.0000      -0.441155       -12.0044
  20   0.0000       0.098830         2.6893
  21   0.0000       0.115802         3.1511
  22   0.0000       0.164237         4.4691
  23   0.0000       0.186371         5.0714
  24   0.0000       0.198629         5.4050

MULLIKEN ATOMIC CHARGES
-----------------------
   0 O :   -0.695839
   1 H :    0.351939
   2 H :    0.361180
   3 O :   -0.703811
   4 H :    0.370643
   5 H :    0.327202
   6 O :   -0.689624
   7 H :    0.352708
   8 H :    0.350384
   9 O :   -0.728608
  10 H :    0.367307
  11 H :    0.336518
Sum of atomic charges:   -0.0000000

LOEWDIN ATOMIC CHARGES
----------------------
   0 O :   -0.312418
   1 H :    0.163025
   2 H :    0.188347
   3 O :   -0.324612
   4 H :    0.151732
   5 H :    0.165223
   6 O :   -0.308690
   7 H :    0.163775
   8 H :    0.183894
   9 O :   -0.358312
  10 H :    0.149690
  11 H :    0.138348

  Mayer bond orders larger than 0.100000
B(  0-O ,  1-H ) :   0.8421 B(  0-O ,  2-H ) :   0.8301 B(  3-O ,  4-H ) :   0.8116
B(  3-O ,  5-H ) :   0.8511 B(  6-O ,  7-H ) :   0.8415 B(  6-O ,  8-H ) :   0.8373
B(  9-O , 10-H ) :   0.8228 B(  9-O , 11-H ) :   0.8367

MP2 TOTAL ENERGY:     -305.269355895 Eh
FINAL SINGLE POINT ENERGY      -305.269355895093

DIPOLE MOMENT
-------------
                                X             Y             Z
Electronic contribution:      0.19876       0.19843      -0.12219
Nuclear contribution   :     -1.38977      -1.89749      -1.46039
                        -----------------------------------------
Total Dipole Moment    :     -1.19101      -1.69906      -1.58257
                        -----------------------------------------
Magnitude (a.u.)       :      2.60957
Magnitude (Debye)      :      6.63299

Rotational constants in cm-1:     0.216212     0.038744     0.033057
Rotational constants in MHz :  6481.887636  1161.528697   991.030869

                             ****ORCA TERMINATED NORMALLY****
TOTAL RUN TIME: 0 days 0 hours 0 minutes 17 seconds 639 msec
