                         Program Version 4.2.0 -  RELEASE  -
|  1> # 12h2o.su.etal.mol1,2,4,6,7,9,10,11
|  2> ! MP2 def2-TZVP EnGrad TightSCF
|  3>
|  4> %pal
|  5>     nprocs 6
|  6> end
|  7>
|  8> %maxcore 8000
|  9>
| 10> %scf
| 11>     ConvForced true
| 12> end
| 13>
| 14> *xyz 0 1
| 15> O  -1.794470000  -0.923410000   2.768350000
| 16> H  -2.338250000  -1.359750000   3.430940000
| 17> H  -0.879480000  -1.303000000   2.865760000
| 18> O   0.923410000  -1.794470000  -2.768350000
| 19> H   1.359750000  -2.338250000  -3.430940000
| 20> H   1.303000000  -0.879480000  -2.865760000
| 21> O  -0.885520000   1.737840000   0.052730000
| 22> H  -1.032320000   2.090180000  -0.841890000
| 23> H  -1.284090000   0.839590000   0.017130000
| 24> O   1.737840000   0.885520000  -0.052730000
| 25> H   2.090180000   1.032320000   0.841890000
| 26> H   0.839590000   1.284090000  -0.017130000
| 27> O  -1.737840000  -0.885520000  -0.052730000
| 28> H  -2.090180000  -1.032320000   0.841890000
| 29> H  -0.839590000  -1.284090000  -0.017130000
| 30> O   0.741530000  -1.752130000   2.896280000
| 31> H   0.920500000  -2.036450000   1.984040000
| 32> H   1.242140000  -0.921210000   2.984230000
| 33> O  -0.923410000   1.794470000  -2.768350000
| 34> H  -1.359750000   2.338250000  -3.430940000
| 35> H  -1.303000000   0.879480000  -2.865760000
| 36> O  -0.741530000   1.752130000   2.896280000
| 37> H  -0.920500000   2.036450000   1.984040000
| 38> H  -1.242140000   0.921210000   2.984230000
| 39> *
| 40>
| 41>                          ****END OF INPUT****

CARTESIAN COORDINATES (ANGSTROEM)
---------------------------------
  O     -1.794470   -0.923410    2.768350
  H     -2.338250   -1.359750    3.430940
  H     -0.879480   -1.303000    2.865760
  O      0.923410   -1.794470   -2.768350
  H      1.359750   -2.338250   -3.430940
  H      1.303000   -0.879480   -2.865760
  O     -0.885520    1.737840    0.052730
  H     -1.032320    2.090180   -0.841890
  H     -1.284090    0.839590    0.017130
  O      1.737840    0.885520   -0.052730
  H      2.090180    1.032320    0.841890
  H      0.839590    1.284090   -0.017130
  O     -1.737840   -0.885520   -0.052730
  H     -2.090180   -1.032320    0.841890
  H     -0.839590   -1.284090   -0.017130
  O      0.741530   -1.752130    2.896280
  H      0.920500   -2.036450    1.984040
  H      1.242140   -0.921210    2.984230
  O     -0.923410    1.794470   -2.768350
  H     -1.359750    2.338250   -3.430940
  H     -1.303000    0.879480   -2.865760
  O     -0.741530    1.752130    2.896280
  H     -0.920500    2.036450    1.984040
  H     -1.242140    0.921210    2.984230

 Total Charge           Charge          ....    0
 Multiplicity           Mult            ....    1
 Number of Electrons    NEL             ....   80
 Basis Dimension        Dim             ....  344

ORBITAL ENERGIES
----------------

  NO   OCC          E(Eh)            E(eV)
   0   2.0000     -20.609388      -560.8100
   1   2.0000     -20.586708      -560.1928
   2   2.0000     -20.572648      -559.8102
   3   2.0000     -20.569136      -559.7146
   4   2.0000     -20.563367      -559.5577
   5   2.0000     -20.541074      -558.9510
   6   2.0000     -20.525279      -558.5212
   7   2.0000     -20.506026      -557.9973
   8   2.0000      -1.395955       -37.9859
   9   2.0000      -1.365405       -37.1545
  10   2.0000      -1.361707       -37.0539
  11   2.0000      -1.350742       -36.7555
  12   2.0000      -1.338700       -36.4279
  13   2.0000      -1.331464       -36.2310
  14   2.0000      -1.304682       -35.5022
  15   2.0000      -1.290899       -35.1271
  16   2.0000      -0.751608       -20.4523
  17   2.0000      -0.740524       -20.1507
  18   2.0000      -0.731571       -19.9071
  19   2.0000      -0.715703       -19.4753
  20   2.0000      -0.706576       -19.2269
  21   2.0000      -0.705212       -19.1898
  22   2.0000      -0.678919       -18.4743
  23   2.0000      -0.668957       -18.2032
  24   2.0000      -0.640773       -17.4363
  25   2.0000      -0.615565       -16.7504
  26   2.0000      -0.604104       -16.4385
  27   2.0000      -0.586737       -15.9659
  28   2.0000      -0.580898       -15.8070
  29   2.0000      -0.576053       -15.6752
  30   2.0000      -0.555931       -15.1276
  31   2.0000      -0.546155       -14.8616
  32   2.0000      -0.535092       -14.5606
  33   2.0000      -0.522795       -14.2260
  34   2.0000      -0.511348       -13.9145
  35   2.0000      -0.507329       -13.8051
  36   2.0000      -0.506073       -13.7709
  37   2.0000      -0.486576       -13.2404
  38   2.0000      -0.473180       -12.8759
  39   2.0000      -0.456087       -12.4107
  40   0.0000       0.088842         2.4175
  41   0.0000       0.112992         3.0747
  42   0.0000       0.138017         3.7556
  43   0.0000       0.144725         3.9382
  44   0.0000       0.157819         4.2945

MULLIKEN ATOMIC CHARGES
-----------------------
   0 O :   -0.750807
   1 H :    0.352693
   2 H :    0.381726
   3 O :   -0.698086
   4 H :    0.338146
   5 H :    0.360705
   6 O :   -0.750435
   7 H :    0.378093
   8 H :    0.358604
   9 O :   -0.726908
  10 H :    0.320543
  11 H :    0.367266
  12 O :   -0.702480
  13 H :    0.380547
  14 H :    0.346544
  15 O :   -0.685510
  16 H :    0.360810
  17 H :    0.372600
  18 O :   -0.702102
  19 H :    0.350432
  20 H :    0.367377
  21 O :   -0.735980
  22 H :    0.370606
  23 H :    0.345617
Sum of atomic charges:    0.0000000

LOEWDIN ATOMIC CHARGES
----------------------
   0 O :   -0.312727
   1 H :    0.160313
   2 H :    0.145935
   3 O :   -0.343881
   4 H :    0.157971
   5 H :    0.186362
   6 O :   -0.302171
   7 H :    0.151352
   8 H :    0.141468
   9 O :   -0.364656
  10 H :    0.152799
  11 H :    0.142513
  12 O :   -0.297323
  13 H :    0.152808
  14 H :    0.170334
  15 O :   -0.266091
  16 H :    0.173788
  17 H :    0.180634
  18 O :   -0.311445
  19 H :    0.162935
  20 H :    0.189323
  21 O :   -0.358385
  22 H :    0.148785
  23 H :    0.139359

  Mayer bond orders larger than 0.100000
B(  0-O ,  1-H ) :   0.8392 B(  0-O ,  2-H ) :   0.7490 B(  3-O ,  4-H ) :   0.8528
B(  3-O ,  5-H ) :   0.8304 B(  6-O ,  7-H ) :   0.8036 B(  6-O ,  8-H ) :   0.7672
B(  9-O , 10-H ) :   0.8604 B(  9-O , 11-H ) :   0.7799 B( 12-O , 13-H ) :   0.7969
B( 12-O , 14-H ) :   0.8362 B( 15-O , 16-H ) :   0.8337 B( 15-O , 17-H ) :   0.8222
B( 18-O , 19-H ) :   0.8428 B( 18-O , 20-H ) :   0.8238 B( 21-O , 22-H ) :   0.8183
B( 21-O , 23-H ) :   0.8278

MP2 TOTAL ENERGY:     -610.573423313 Eh
FINAL SINGLE POINT ENERGY      -610.573423313293

DIPOLE MOMENT
-------------
                                X             Y             Z
Electronic contribution:     -0.07709      -0.16797       0.01926
Nuclear contribution   :     -0.14496      -1.13354      -1.23053
                        -----------------------------------------
Total Dipole Moment    :     -0.22206      -1.30152      -1.21127
                        -----------------------------------------
Magnitude (a.u.)       :      1.79176
Magnitude (Debye)      :      4.55430

Rotational constants in cm-1:     0.031918     0.018516     0.015868
Rotational constants in MHz :   956.879617   555.094644   475.710103

                             ****ORCA TERMINATED NORMALLY****
TOTAL RUN TIME: 0 days 0 hours 3 minutes 2 seconds 616 msec
