                         Program Version 4.2.0 -  RELEASE  -
|  1> ! MP2 def2-TZVP EnGrad TightSCF FrozenCore
|  2>
|  3> %pal
|  4>     nprocs 12
|  5> end
|  6>
|  7> %maxcore 8000
|  8>
|  9> %scf
| 10>     ConvForced true
| 11> end
| 12>
| 13> *xyz 0 1
| 14> C     2.664895    -0.771250    -1.541041
| 15> H     2.555582    -1.850769    -1.412048
| 16> H     3.570760    -0.553637    -2.112454
| 17> H     1.788380    -0.393659    -2.075732
| 18> C     2.729585    -0.125073    -0.233379
| 19> N     2.769474     0.392191     0.806952
| 20> C    -2.664895    -0.771252    -1.541040
| 21> H    -2.555565    -1.850768    -1.412047
| 22> H    -1.788391    -0.393648    -2.075738
| 23> H    -3.570768    -0.553653    -2.112446
| 24> C    -2.729585    -0.125074    -0.233379
| 25> N    -2.769475     0.392193     0.806951
| 26> C     0.000000    -0.991275     2.289935
| 27> H     0.896569    -0.374454     2.406353
| 28> H     0.000000    -1.775196     3.051763
| 29> H    -0.896569    -0.374455     2.406353
| 30> C     0.000000    -1.589416     0.957861
| 31> N     0.000001    -2.062320    -0.104099
| 32> C     0.000000     2.457775     0.830467
| 33> H     0.896604     2.138062     1.370044
| 34> H    -0.896602     2.138060     1.370045
| 35> H    -0.000001     3.547515     0.744938
| 36> C    -0.000000     1.853580    -0.498869
| 37> N    -0.000000     1.373438    -1.557285
| 38> *
| 39>
| 40>                          ****END OF INPUT****

CARTESIAN COORDINATES (ANGSTROEM)
---------------------------------
  C      2.664895   -0.771250   -1.541041
  H      2.555582   -1.850769   -1.412048
  H      3.570760   -0.553637   -2.112454
  H      1.788380   -0.393659   -2.075732
  C      2.729585   -0.125073   -0.233379
  N      2.769474    0.392191    0.806952
  C     -2.664895   -0.771252   -1.541040
  H     -2.555565   -1.850768   -1.412047
  H     -1.788391   -0.393648   -2.075738
  H     -3.570768   -0.553653   -2.112446
  C     -2.729585   -0.125074   -0.233379
  N     -2.769475    0.392193    0.806951
  C      0.000000   -0.991275    2.289935
  H      0.896569   -0.374454    2.406353
  H      0.000000   -1.775196    3.051763
  H     -0.896569   -0.374455    2.406353
  C      0.000000   -1.589416    0.957861
  N      0.000001   -2.062320   -0.104099
  C      0.000000    2.457775    0.830467
  H      0.896604    2.138062    1.370044
  H     -0.896602    2.138060    1.370045
  H     -0.000001    3.547515    0.744938
  C     -0.000000    1.853580   -0.498869
  N     -0.000000    1.373438   -1.557285

 Total Charge           Charge          ....    0
 Multiplicity           Mult            ....    1
 Number of Electrons    NEL             ....   88
 Basis Dimension        Dim             ....  444

ORBITAL ENERGIES
----------------

  NO   OCC          E(Eh)            E(eV)
   0   2.0000     -15.567916      -423.6245
   1   2.0000     -15.567338      -423.6088
   2   2.0000     -15.567067      -423.6014
   3   2.0000     -15.567067      -423.6014
   4   2.0000     -11.282377      -307.0091
   5   2.0000     -11.282377      -307.0091
   6   2.0000     -11.281764      -306.9924
   7   2.0000     -11.281523      -306.9858
   8   2.0000     -11.268842      -306.6408
   9   2.0000     -11.268670      -306.6361
  10   2.0000     -11.265312      -306.5447
  11   2.0000     -11.265312      -306.5447
  12   2.0000      -1.220840       -33.2208
  13   2.0000      -1.216752       -33.1095
  14   2.0000      -1.216101       -33.0918
  15   2.0000      -1.213414       -33.0187
  16   2.0000      -1.030884       -28.0518
  17   2.0000      -1.026476       -27.9318
  18   2.0000      -1.024967       -27.8908
  19   2.0000      -1.024097       -27.8671
  20   2.0000      -0.691115       -18.8062
  21   2.0000      -0.685516       -18.6538
  22   2.0000      -0.684827       -18.6351
  23   2.0000      -0.682582       -18.5740
  24   2.0000      -0.630020       -17.1437
  25   2.0000      -0.629342       -17.1253
  26   2.0000      -0.621110       -16.9013
  27   2.0000      -0.615868       -16.7586
  28   2.0000      -0.613610       -16.6972
  29   2.0000      -0.609364       -16.5816
  30   2.0000      -0.607237       -16.5238
  31   2.0000      -0.604623       -16.4526
  32   2.0000      -0.560219       -15.2443
  33   2.0000      -0.555937       -15.1278
  34   2.0000      -0.555366       -15.1123
  35   2.0000      -0.554289       -15.0830
  36   2.0000      -0.468755       -12.7555
  37   2.0000      -0.463532       -12.6133
  38   2.0000      -0.461505       -12.5582
  39   2.0000      -0.459054       -12.4915
  40   2.0000      -0.456788       -12.4298
  41   2.0000      -0.454377       -12.3642
  42   2.0000      -0.454007       -12.3542
  43   2.0000      -0.451592       -12.2884
  44   0.0000       0.130543         3.5523
  45   0.0000       0.151161         4.1133
  46   0.0000       0.151658         4.1268
  47   0.0000       0.158839         4.3222
  48   0.0000       0.164920         4.4877

MULLIKEN ATOMIC CHARGES
-----------------------
   0 C :   -0.273137
   1 H :    0.176775
   2 H :    0.168066
   3 H :    0.197363
   4 C :   -0.094337
   5 N :   -0.174771
   6 C :   -0.273137
   7 H :    0.176775
   8 H :    0.197362
   9 H :    0.168066
  10 C :   -0.094336
  11 N :   -0.174771
  12 C :   -0.299620
  13 H :    0.191755
  14 H :    0.173317
  15 H :    0.191755
  16 C :   -0.100443
  17 N :   -0.157597
  18 C :   -0.300167
  19 H :    0.192224
  20 H :    0.192224
  21 H :    0.173655
  22 C :   -0.080518
  23 N :   -0.176503
Sum of atomic charges:   -0.0000000

LOEWDIN ATOMIC CHARGES
----------------------
   0 C :   -0.282666
   1 H :    0.153386
   2 H :    0.147466
   3 H :    0.156596
   4 C :   -0.200306
   5 N :    0.020985
   6 C :   -0.282666
   7 H :    0.153386
   8 H :    0.156596
   9 H :    0.147466
  10 C :   -0.200306
  11 N :    0.020985
  12 C :   -0.283308
  13 H :    0.152600
  14 H :    0.149878
  15 H :    0.152600
  16 C :   -0.203496
  17 N :    0.037892
  18 C :   -0.283029
  19 H :    0.152545
  20 H :    0.152545
  21 H :    0.150158
  22 C :   -0.199466
  23 N :    0.030158

  Mayer bond orders larger than 0.100000
B(  0-C ,  1-H ) :   0.9123 B(  0-C ,  2-H ) :   0.9105 B(  0-C ,  3-H ) :   0.9046
B(  0-C ,  4-C ) :   0.9069 B(  4-C ,  5-N ) :   2.7401 B(  6-C ,  7-H ) :   0.9123
B(  6-C ,  8-H ) :   0.9046 B(  6-C ,  9-H ) :   0.9105 B(  6-C , 10-C ) :   0.9069
B( 10-C , 11-N ) :   2.7401 B( 12-C , 13-H ) :   0.9102 B( 12-C , 14-H ) :   0.9081
B( 12-C , 15-H ) :   0.9102 B( 12-C , 16-C ) :   0.8908 B( 16-C , 17-N ) :   2.7514
B( 18-C , 19-H ) :   0.9092 B( 18-C , 20-H ) :   0.9092 B( 18-C , 21-H ) :   0.9083
B( 18-C , 22-C ) :   0.8959 B( 22-C , 23-N ) :   2.7202

MP2 TOTAL ENERGY:     -529.967436694 Eh
FINAL SINGLE POINT ENERGY      -529.967436693721

DIPOLE MOMENT
-------------
                                X             Y             Z
Electronic contribution:      0.00000       0.17407      -0.19896
Nuclear contribution   :     -0.00000      -0.29795       0.14971
                        -----------------------------------------
Total Dipole Moment    :      0.00000      -0.12388      -0.04925
                        -----------------------------------------
Magnitude (a.u.)       :      0.13331
Magnitude (Debye)      :      0.33885

Rotational constants in cm-1:     0.031379     0.019738     0.018542
Rotational constants in MHz :   940.707251   591.735770   555.865476

                             ****ORCA TERMINATED NORMALLY****
TOTAL RUN TIME: 0 days 0 hours 12 minutes 28 seconds 717 msec
