                         Program Version 4.2.0 -  RELEASE  -
|  1> # 12h2o.su.etal.mol0,1,2,4,5,9
|  2> ! MP2 def2-TZVP EnGrad TightSCF
|  3>
|  4> %pal
|  5>     nprocs 6
|  6> end
|  7>
|  8> %maxcore 8000
|  9>
| 10> %scf
| 11>     ConvForced true
| 12> end
| 13>
| 14> *xyz 0 1
| 15> O   1.794470000   0.923410000   2.768350000
| 16> H   2.338250000   1.359750000   3.430940000
| 17> H   0.879480000   1.303000000   2.865760000
| 18> O  -1.794470000  -0.923410000   2.768350000
| 19> H  -2.338250000  -1.359750000   3.430940000
| 20> H  -0.879480000  -1.303000000   2.865760000
| 21> O   0.923410000  -1.794470000  -2.768350000
| 22> H   1.359750000  -2.338250000  -3.430940000
| 23> H   1.303000000  -0.879480000  -2.865760000
| 24> O  -0.885520000   1.737840000   0.052730000
| 25> H  -1.032320000   2.090180000  -0.841890000
| 26> H  -1.284090000   0.839590000   0.017130000
| 27> O   0.885520000  -1.737840000   0.052730000
| 28> H   1.284090000  -0.839590000   0.017130000
| 29> H   1.032320000  -2.090180000  -0.841890000
| 30> O   0.741530000  -1.752130000   2.896280000
| 31> H   0.920500000  -2.036450000   1.984040000
| 32> H   1.242140000  -0.921210000   2.984230000
| 33> *
| 34>
| 35>                          ****END OF INPUT****

CARTESIAN COORDINATES (ANGSTROEM)
---------------------------------
  O      1.794470    0.923410    2.768350
  H      2.338250    1.359750    3.430940
  H      0.879480    1.303000    2.865760
  O     -1.794470   -0.923410    2.768350
  H     -2.338250   -1.359750    3.430940
  H     -0.879480   -1.303000    2.865760
  O      0.923410   -1.794470   -2.768350
  H      1.359750   -2.338250   -3.430940
  H      1.303000   -0.879480   -2.865760
  O     -0.885520    1.737840    0.052730
  H     -1.032320    2.090180   -0.841890
  H     -1.284090    0.839590    0.017130
  O      0.885520   -1.737840    0.052730
  H      1.284090   -0.839590    0.017130
  H      1.032320   -2.090180   -0.841890
  O      0.741530   -1.752130    2.896280
  H      0.920500   -2.036450    1.984040
  H      1.242140   -0.921210    2.984230

 Total Charge           Charge          ....    0
 Multiplicity           Mult            ....    1
 Number of Electrons    NEL             ....   60
 Basis Dimension        Dim             ....  258

ORBITAL ENERGIES
----------------

  NO   OCC          E(Eh)            E(eV)
   0   2.0000     -20.599295      -560.5353
   1   2.0000     -20.578470      -559.9686
   2   2.0000     -20.554250      -559.3096
   3   2.0000     -20.552157      -559.2526
   4   2.0000     -20.527119      -558.5713
   5   2.0000     -20.496358      -557.7343
   6   2.0000      -1.377195       -37.4754
   7   2.0000      -1.356513       -36.9126
   8   2.0000      -1.334481       -36.3131
   9   2.0000      -1.330195       -36.1965
  10   2.0000      -1.317899       -35.8619
  11   2.0000      -1.277495       -34.7624
  12   2.0000      -0.744098       -20.2479
  13   2.0000      -0.723346       -19.6833
  14   2.0000      -0.704390       -19.1674
  15   2.0000      -0.691544       -18.8179
  16   2.0000      -0.683107       -18.5883
  17   2.0000      -0.663365       -18.0511
  18   2.0000      -0.616425       -16.7738
  19   2.0000      -0.601117       -16.3572
  20   2.0000      -0.580845       -15.8056
  21   2.0000      -0.570598       -15.5268
  22   2.0000      -0.558419       -15.1953
  23   2.0000      -0.536137       -14.5890
  24   2.0000      -0.525266       -14.2932
  25   2.0000      -0.511856       -13.9283
  26   2.0000      -0.500179       -13.6106
  27   2.0000      -0.495528       -13.4840
  28   2.0000      -0.466975       -12.7070
  29   2.0000      -0.447206       -12.1691
  30   0.0000       0.092237         2.5099
  31   0.0000       0.122016         3.3202
  32   0.0000       0.142405         3.8750
  33   0.0000       0.172829         4.7029
  34   0.0000       0.178373         4.8538

MULLIKEN ATOMIC CHARGES
-----------------------
   0 O :   -0.706613
   1 H :    0.349681
   2 H :    0.378521
   3 O :   -0.740705
   4 H :    0.317763
   5 H :    0.370277
   6 O :   -0.692046
   7 H :    0.354070
   8 H :    0.351870
   9 O :   -0.690787
  10 H :    0.328403
  11 H :    0.361429
  12 O :   -0.713126
  13 H :    0.338456
  14 H :    0.372955
  15 O :   -0.720530
  16 H :    0.382614
  17 H :    0.357769
Sum of atomic charges:   -0.0000000

LOEWDIN ATOMIC CHARGES
----------------------
   0 O :   -0.313118
   1 H :    0.162432
   2 H :    0.194570
   3 O :   -0.377914
   4 H :    0.145111
   5 H :    0.142136
   6 O :   -0.309389
   7 H :    0.164418
   8 H :    0.184509
   9 O :   -0.340900
  10 H :    0.161250
  11 H :    0.179257
  12 O :   -0.324509
  13 H :    0.168117
  14 H :    0.152910
  15 O :   -0.291422
  16 H :    0.155915
  17 H :    0.146626

  Mayer bond orders larger than 0.100000
B(  0-O ,  1-H ) :   0.8433 B(  0-O ,  2-H ) :   0.8157 B(  3-O ,  4-H ) :   0.8641
B(  3-O ,  5-H ) :   0.7662 B(  5-H , 15-O ) :   0.1053 B(  6-O ,  7-H ) :   0.8408
B(  6-O ,  8-H ) :   0.8362 B(  9-O , 10-H ) :   0.8570 B(  9-O , 11-H ) :   0.8302
B( 12-O , 13-H ) :   0.8415 B( 12-O , 14-H ) :   0.8097 B( 15-O , 16-H ) :   0.8041
B( 15-O , 17-H ) :   0.8114

MP2 TOTAL ENERGY:     -457.915852337 Eh
FINAL SINGLE POINT ENERGY      -457.915852337386

DIPOLE MOMENT
-------------
                                X             Y             Z
Electronic contribution:      0.15469      -0.09847      -0.12352
Nuclear contribution   :      1.24480       0.76395      -1.60207
                        -----------------------------------------
Total Dipole Moment    :      1.39949       0.66548      -1.72559
                        -----------------------------------------
Magnitude (a.u.)       :      2.31929
Magnitude (Debye)      :      5.89517

Rotational constants in cm-1:     0.046521     0.025885     0.023686
Rotational constants in MHz :  1394.652657   776.005800   710.074035

                             ****ORCA TERMINATED NORMALLY****
TOTAL RUN TIME: 0 days 0 hours 1 minutes 33 seconds 60 msec
