                         Program Version 4.2.0 -  RELEASE  -
|  1> # 12h2o.su.etal.mol2,4,5,6,8,9,10
|  2> ! MP2 def2-TZVP EnGrad TightSCF
|  3>
|  4> %pal
|  5>     nprocs 6
|  6> end
|  7>
|  8> %maxcore 8000
|  9>
| 10> %scf
| 11>     ConvForced true
| 12> end
| 13>
| 14> *xyz 0 1
| 15> O   0.923410000  -1.794470000  -2.768350000
| 16> H   1.359750000  -2.338250000  -3.430940000
| 17> H   1.303000000  -0.879480000  -2.865760000
| 18> O  -0.885520000   1.737840000   0.052730000
| 19> H  -1.032320000   2.090180000  -0.841890000
| 20> H  -1.284090000   0.839590000   0.017130000
| 21> O   0.885520000  -1.737840000   0.052730000
| 22> H   1.284090000  -0.839590000   0.017130000
| 23> H   1.032320000  -2.090180000  -0.841890000
| 24> O   1.737840000   0.885520000  -0.052730000
| 25> H   2.090180000   1.032320000   0.841890000
| 26> H   0.839590000   1.284090000  -0.017130000
| 27> O   1.752130000   0.741530000  -2.896280000
| 28> H   2.036450000   0.920500000  -1.984040000
| 29> H   0.921210000   1.242140000  -2.984230000
| 30> O   0.741530000  -1.752130000   2.896280000
| 31> H   0.920500000  -2.036450000   1.984040000
| 32> H   1.242140000  -0.921210000   2.984230000
| 33> O  -0.923410000   1.794470000  -2.768350000
| 34> H  -1.359750000   2.338250000  -3.430940000
| 35> H  -1.303000000   0.879480000  -2.865760000
| 36> *
| 37>
| 38>                          ****END OF INPUT****

CARTESIAN COORDINATES (ANGSTROEM)
---------------------------------
  O      0.923410   -1.794470   -2.768350
  H      1.359750   -2.338250   -3.430940
  H      1.303000   -0.879480   -2.865760
  O     -0.885520    1.737840    0.052730
  H     -1.032320    2.090180   -0.841890
  H     -1.284090    0.839590    0.017130
  O      0.885520   -1.737840    0.052730
  H      1.284090   -0.839590    0.017130
  H      1.032320   -2.090180   -0.841890
  O      1.737840    0.885520   -0.052730
  H      2.090180    1.032320    0.841890
  H      0.839590    1.284090   -0.017130
  O      1.752130    0.741530   -2.896280
  H      2.036450    0.920500   -1.984040
  H      0.921210    1.242140   -2.984230
  O      0.741530   -1.752130    2.896280
  H      0.920500   -2.036450    1.984040
  H      1.242140   -0.921210    2.984230
  O     -0.923410    1.794470   -2.768350
  H     -1.359750    2.338250   -3.430940
  H     -1.303000    0.879480   -2.865760

 Total Charge           Charge          ....    0
 Multiplicity           Mult            ....    1
 Number of Electrons    NEL             ....   70
 Basis Dimension        Dim             ....  301

ORBITAL ENERGIES
----------------

  NO   OCC          E(Eh)            E(eV)
   0   2.0000     -20.634852      -561.5029
   1   2.0000     -20.588471      -560.2408
   2   2.0000     -20.585456      -560.1587
   3   2.0000     -20.564667      -559.5930
   4   2.0000     -20.541696      -558.9680
   5   2.0000     -20.518167      -558.3277
   6   2.0000     -20.517863      -558.3194
   7   2.0000      -1.415509       -38.5180
   8   2.0000      -1.381155       -37.5831
   9   2.0000      -1.365835       -37.1663
  10   2.0000      -1.355895       -36.8958
  11   2.0000      -1.325655       -36.0729
  12   2.0000      -1.307143       -35.5692
  13   2.0000      -1.296332       -35.2750
  14   2.0000      -0.780797       -21.2466
  15   2.0000      -0.741954       -20.1896
  16   2.0000      -0.735708       -20.0196
  17   2.0000      -0.723840       -19.6967
  18   2.0000      -0.708668       -19.2838
  19   2.0000      -0.686804       -18.6889
  20   2.0000      -0.667265       -18.1572
  21   2.0000      -0.659357       -17.9420
  22   2.0000      -0.630539       -17.1578
  23   2.0000      -0.617411       -16.8006
  24   2.0000      -0.590186       -16.0598
  25   2.0000      -0.582854       -15.8603
  26   2.0000      -0.567767       -15.4497
  27   2.0000      -0.552959       -15.0468
  28   2.0000      -0.536912       -14.6101
  29   2.0000      -0.529357       -14.4045
  30   2.0000      -0.515760       -14.0346
  31   2.0000      -0.505845       -13.7647
  32   2.0000      -0.489133       -13.3100
  33   2.0000      -0.470465       -12.8020
  34   2.0000      -0.463620       -12.6158
  35   0.0000       0.078588         2.1385
  36   0.0000       0.113931         3.1002
  37   0.0000       0.144086         3.9208
  38   0.0000       0.156694         4.2639
  39   0.0000       0.182957         4.9785

MULLIKEN ATOMIC CHARGES
-----------------------
   0 O :   -0.745306
   1 H :    0.335907
   2 H :    0.370062
   3 O :   -0.699213
   4 H :    0.378405
   5 H :    0.359529
   6 O :   -0.747927
   7 H :    0.334767
   8 H :    0.371458
   9 O :   -0.735053
  10 H :    0.355954
  11 H :    0.373906
  12 O :   -0.713294
  13 H :    0.387847
  14 H :    0.361859
  15 O :   -0.694990
  16 H :    0.377162
  17 H :    0.303646
  18 O :   -0.727906
  19 H :    0.372981
  20 H :    0.380205
Sum of atomic charges:   -0.0000000

LOEWDIN ATOMIC CHARGES
----------------------
   0 O :   -0.346144
   1 H :    0.152968
   2 H :    0.142382
   3 O :   -0.293141
   4 H :    0.152377
   5 H :    0.179168
   6 O :   -0.351105
   7 H :    0.133486
   8 H :    0.149279
   9 O :   -0.296706
  10 H :    0.169469
  11 H :    0.147284
  12 O :   -0.283659
  13 H :    0.157406
  14 H :    0.147407
  15 O :   -0.343155
  16 H :    0.153737
  17 H :    0.149966
  18 O :   -0.289028
  19 H :    0.172173
  20 H :    0.195835

  Mayer bond orders larger than 0.100000
B(  0-O ,  1-H ) :   0.8510 B(  0-O ,  2-H ) :   0.7539 B(  2-H , 12-O ) :   0.1078
B(  3-O ,  4-H ) :   0.8070 B(  3-O ,  5-H ) :   0.8300 B(  3-O , 11-H ) :   0.1038
B(  6-O ,  7-H ) :   0.7966 B(  6-O ,  8-H ) :   0.8068 B(  9-O , 10-H ) :   0.8364
B(  9-O , 11-H ) :   0.7558 B( 12-O , 13-H ) :   0.8031 B( 12-O , 14-H ) :   0.8160
B( 15-O , 16-H ) :   0.8076 B( 15-O , 17-H ) :   0.8712 B( 18-O , 19-H ) :   0.8269
B( 18-O , 20-H ) :   0.8123

MP2 TOTAL ENERGY:     -534.258986057 Eh
FINAL SINGLE POINT ENERGY      -534.258986057160

DIPOLE MOMENT
-------------
                                X             Y             Z
Electronic contribution:     -0.27431       0.43639      -0.13143
Nuclear contribution   :     -0.34371       1.47457      -2.03947
                        -----------------------------------------
Total Dipole Moment    :     -0.61802       1.91096      -2.17089
                        -----------------------------------------
Magnitude (a.u.)       :      2.95744
Magnitude (Debye)      :      7.51723

Rotational constants in cm-1:     0.045322     0.025360     0.019890
Rotational constants in MHz :  1358.720176   760.267718   596.296477

                             ****ORCA TERMINATED NORMALLY****
TOTAL RUN TIME: 0 days 0 hours 2 minutes 20 seconds 170 msec
