                         Program Version 4.2.0 -  RELEASE  -
|  1> # 12h2o.su.etal.mol0,1,2,3,4,5,6,7,8,9
|  2> ! MP2 def2-TZVP EnGrad TightSCF
|  3>
|  4> %pal
|  5>     nprocs 6
|  6> end
|  7>
|  8> %maxcore 8000
|  9>
| 10> %scf
| 11>     ConvForced true
| 12> end
| 13>
| 14> *xyz 0 1
| 15> O   1.794470000   0.923410000   2.768350000
| 16> H   2.338250000   1.359750000   3.430940000
| 17> H   0.879480000   1.303000000   2.865760000
| 18> O  -1.794470000  -0.923410000   2.768350000
| 19> H  -2.338250000  -1.359750000   3.430940000
| 20> H  -0.879480000  -1.303000000   2.865760000
| 21> O   0.923410000  -1.794470000  -2.768350000
| 22> H   1.359750000  -2.338250000  -3.430940000
| 23> H   1.303000000  -0.879480000  -2.865760000
| 24> O  -1.752130000  -0.741530000  -2.896280000
| 25> H  -2.036450000  -0.920500000  -1.984040000
| 26> H  -0.921210000  -1.242140000  -2.984230000
| 27> O  -0.885520000   1.737840000   0.052730000
| 28> H  -1.032320000   2.090180000  -0.841890000
| 29> H  -1.284090000   0.839590000   0.017130000
| 30> O   0.885520000  -1.737840000   0.052730000
| 31> H   1.284090000  -0.839590000   0.017130000
| 32> H   1.032320000  -2.090180000  -0.841890000
| 33> O   1.737840000   0.885520000  -0.052730000
| 34> H   2.090180000   1.032320000   0.841890000
| 35> H   0.839590000   1.284090000  -0.017130000
| 36> O  -1.737840000  -0.885520000  -0.052730000
| 37> H  -2.090180000  -1.032320000   0.841890000
| 38> H  -0.839590000  -1.284090000  -0.017130000
| 39> O   1.752130000   0.741530000  -2.896280000
| 40> H   2.036450000   0.920500000  -1.984040000
| 41> H   0.921210000   1.242140000  -2.984230000
| 42> O   0.741530000  -1.752130000   2.896280000
| 43> H   0.920500000  -2.036450000   1.984040000
| 44> H   1.242140000  -0.921210000   2.984230000
| 45> *
| 46>
| 47>                          ****END OF INPUT****

CARTESIAN COORDINATES (ANGSTROEM)
---------------------------------
  O      1.794470    0.923410    2.768350
  H      2.338250    1.359750    3.430940
  H      0.879480    1.303000    2.865760
  O     -1.794470   -0.923410    2.768350
  H     -2.338250   -1.359750    3.430940
  H     -0.879480   -1.303000    2.865760
  O      0.923410   -1.794470   -2.768350
  H      1.359750   -2.338250   -3.430940
  H      1.303000   -0.879480   -2.865760
  O     -1.752130   -0.741530   -2.896280
  H     -2.036450   -0.920500   -1.984040
  H     -0.921210   -1.242140   -2.984230
  O     -0.885520    1.737840    0.052730
  H     -1.032320    2.090180   -0.841890
  H     -1.284090    0.839590    0.017130
  O      0.885520   -1.737840    0.052730
  H      1.284090   -0.839590    0.017130
  H      1.032320   -2.090180   -0.841890
  O      1.737840    0.885520   -0.052730
  H      2.090180    1.032320    0.841890
  H      0.839590    1.284090   -0.017130
  O     -1.737840   -0.885520   -0.052730
  H     -2.090180   -1.032320    0.841890
  H     -0.839590   -1.284090   -0.017130
  O      1.752130    0.741530   -2.896280
  H      2.036450    0.920500   -1.984040
  H      0.921210    1.242140   -2.984230
  O      0.741530   -1.752130    2.896280
  H      0.920500   -2.036450    1.984040
  H      1.242140   -0.921210    2.984230

 Total Charge           Charge          ....    0
 Multiplicity           Mult            ....    1
 Number of Electrons    NEL             ....  100
 Basis Dimension        Dim             ....  430

ORBITAL ENERGIES
----------------

  NO   OCC          E(Eh)            E(eV)
   0   2.0000     -20.625275      -561.2423
   1   2.0000     -20.581787      -560.0589
   2   2.0000     -20.574630      -559.8642
   3   2.0000     -20.565565      -559.6175
   4   2.0000     -20.563925      -559.5729
   5   2.0000     -20.558755      -559.4322
   6   2.0000     -20.557759      -559.4051
   7   2.0000     -20.543010      -559.0037
   8   2.0000     -20.542986      -559.0031
   9   2.0000     -20.505329      -557.9784
  10   2.0000      -1.406053       -38.2607
  11   2.0000      -1.378112       -37.5003
  12   2.0000      -1.367859       -37.2213
  13   2.0000      -1.357670       -36.9441
  14   2.0000      -1.350437       -36.7473
  15   2.0000      -1.349890       -36.7324
  16   2.0000      -1.341922       -36.5156
  17   2.0000      -1.331418       -36.2297
  18   2.0000      -1.320482       -35.9321
  19   2.0000      -1.290196       -35.1080
  20   2.0000      -0.771302       -20.9882
  21   2.0000      -0.741903       -20.1882
  22   2.0000      -0.731135       -19.8952
  23   2.0000      -0.727152       -19.7868
  24   2.0000      -0.725207       -19.7339
  25   2.0000      -0.716918       -19.5083
  26   2.0000      -0.713490       -19.4151
  27   2.0000      -0.709732       -19.3128
  28   2.0000      -0.704724       -19.1765
  29   2.0000      -0.667793       -18.1716
  30   2.0000      -0.656001       -17.8507
  31   2.0000      -0.634315       -17.2606
  32   2.0000      -0.621715       -16.9177
  33   2.0000      -0.608366       -16.5545
  34   2.0000      -0.598128       -16.2759
  35   2.0000      -0.594633       -16.1808
  36   2.0000      -0.586276       -15.9534
  37   2.0000      -0.573442       -15.6042
  38   2.0000      -0.562250       -15.2996
  39   2.0000      -0.552255       -15.0276
  40   2.0000      -0.533059       -14.5053
  41   2.0000      -0.521747       -14.1975
  42   2.0000      -0.519456       -14.1351
  43   2.0000      -0.511582       -13.9209
  44   2.0000      -0.507060       -13.7978
  45   2.0000      -0.505609       -13.7583
  46   2.0000      -0.499956       -13.6045
  47   2.0000      -0.493383       -13.4256
  48   2.0000      -0.489763       -13.3271
  49   2.0000      -0.455455       -12.3936
  50   0.0000       0.089967         2.4481
  51   0.0000       0.114689         3.1209
  52   0.0000       0.146205         3.9784
  53   0.0000       0.148126         4.0307
  54   0.0000       0.179979         4.8975

MULLIKEN ATOMIC CHARGES
-----------------------
   0 O :   -0.729035
   1 H :    0.369262
   2 H :    0.387885
   3 O :   -0.747275
   4 H :    0.337749
   5 H :    0.373110
   6 O :   -0.753538
   7 H :    0.349772
   8 H :    0.386970
   9 O :   -0.737707
  10 H :    0.370036
  11 H :    0.348204
  12 O :   -0.723808
  13 H :    0.346564
  14 H :    0.386681
  15 O :   -0.759555
  16 H :    0.361118
  17 H :    0.386025
  18 O :   -0.757375
  19 H :    0.383409
  20 H :    0.357424
  21 O :   -0.760039
  22 H :    0.384032
  23 H :    0.362342
  24 O :   -0.700727
  25 H :    0.391061
  26 H :    0.352455
  27 O :   -0.717423
  28 H :    0.389885
  29 H :    0.362496
Sum of atomic charges:    0.0000000

LOEWDIN ATOMIC CHARGES
----------------------
   0 O :   -0.288931
   1 H :    0.170628
   2 H :    0.198481
   3 O :   -0.345636
   4 H :    0.154092
   5 H :    0.143304
   6 O :   -0.313938
   7 H :    0.159033
   8 H :    0.147234
   9 O :   -0.359398
  10 H :    0.147911
  11 H :    0.140361
  12 O :   -0.310629
  13 H :    0.164384
  14 H :    0.148307
  15 O :   -0.303121
  16 H :    0.140342
  17 H :    0.153516
  18 O :   -0.303907
  19 H :    0.152608
  20 H :    0.140621
  21 O :   -0.302095
  22 H :    0.152791
  23 H :    0.140838
  24 O :   -0.274321
  25 H :    0.158346
  26 H :    0.171121
  27 O :   -0.286070
  28 H :    0.156731
  29 H :    0.147396

  Mayer bond orders larger than 0.100000
B(  0-O ,  1-H ) :   0.8294 B(  0-O ,  2-H ) :   0.8070 B(  3-O ,  4-H ) :   0.8503
B(  3-O ,  5-H ) :   0.7487 B(  5-H , 27-O ) :   0.1127 B(  6-O ,  7-H ) :   0.8410
B(  6-O ,  8-H ) :   0.7397 B(  8-H , 24-O ) :   0.1007 B(  9-O , 10-H ) :   0.8192
B(  9-O , 11-H ) :   0.8243 B( 12-O , 13-H ) :   0.8426 B( 12-O , 14-H ) :   0.7497
B( 12-O , 20-H ) :   0.1267 B( 14-H , 21-O ) :   0.1080 B( 15-O , 16-H ) :   0.7653
B( 15-O , 17-H ) :   0.7913 B( 18-O , 19-H ) :   0.8037 B( 18-O , 20-H ) :   0.7495
B( 21-O , 22-H ) :   0.7898 B( 21-O , 23-H ) :   0.7640 B( 24-O , 25-H ) :   0.7957
B( 24-O , 26-H ) :   0.8358 B( 27-O , 28-H ) :   0.7975 B( 27-O , 29-H ) :   0.8150

MP2 TOTAL ENERGY:     -763.266833300 Eh
FINAL SINGLE POINT ENERGY      -763.266833299645

DIPOLE MOMENT
-------------
                                X             Y             Z
Electronic contribution:      0.37130       0.14597       0.16261
Nuclear contribution   :      1.24480       0.76395       1.31870
                        -----------------------------------------
Total Dipole Moment    :      1.61610       0.90992       1.48131
                        -----------------------------------------
Magnitude (a.u.)       :      2.37361
Magnitude (Debye)      :      6.03323

Rotational constants in cm-1:     0.025224     0.014991     0.013072
Rotational constants in MHz :   756.193656   449.406754   391.875756

                             ****ORCA TERMINATED NORMALLY****
TOTAL RUN TIME: 0 days 0 hours 7 minutes 52 seconds 592 msec
