                         Program Version 4.2.0 -  RELEASE  -
|  1> # 12mecn.remya.etal.2.mol3,11
|  2> ! MP2 def2-TZVP EnGrad TightSCF
|  3>
|  4> %pal
|  5>     nprocs 6
|  6> end
|  7>
|  8> %maxcore 8000
|  9>
| 10> %scf
| 11>     ConvForced true
| 12> end
| 13>
| 14> *xyz 0 1
| 15> C  -5.181310000   2.853865000  -1.626100000
| 16> H  -5.488260000   3.811434000  -2.053310000
| 17> H  -5.857590000   2.068112000  -1.968630000
| 18> H  -4.170750000   2.611402000  -1.966640000
| 19> C  -5.187260000   2.919160000  -0.181450000
| 20> N  -5.181700000   2.970641000   0.983640000
| 21> C   4.214163000   3.378139000   1.593627000
| 22> H   3.242643000   3.657109000   2.012358000
| 23> H   4.969258000   4.086643000   1.941290000
| 24> H   4.482966000   2.372549000   1.931698000
| 25> C   4.130759000   3.388436000   0.150192000
| 26> N   4.050180000   3.381449000  -1.013420000
| 27> *
| 28>
| 29>                          ****END OF INPUT****

CARTESIAN COORDINATES (ANGSTROEM)
---------------------------------
  C     -5.181310    2.853865   -1.626100
  H     -5.488260    3.811434   -2.053310
  H     -5.857590    2.068112   -1.968630
  H     -4.170750    2.611402   -1.966640
  C     -5.187260    2.919160   -0.181450
  N     -5.181700    2.970641    0.983640
  C      4.214163    3.378139    1.593627
  H      3.242643    3.657109    2.012358
  H      4.969258    4.086643    1.941290
  H      4.482966    2.372549    1.931698
  C      4.130759    3.388436    0.150192
  N      4.050180    3.381449   -1.013420

 Total Charge           Charge          ....    0
 Multiplicity           Mult            ....    1
 Number of Electrons    NEL             ....   44
 Basis Dimension        Dim             ....  222

ORBITAL ENERGIES
----------------

  NO   OCC          E(Eh)            E(eV)
   0   2.0000     -15.573359      -423.7727
   1   2.0000     -15.573071      -423.7648
   2   2.0000     -11.284918      -307.0782
   3   2.0000     -11.284266      -307.0605
   4   2.0000     -11.280488      -306.9577
   5   2.0000     -11.280199      -306.9498
   6   2.0000      -1.214983       -33.0614
   7   2.0000      -1.214775       -33.0557
   8   2.0000      -1.043523       -28.3957
   9   2.0000      -1.043267       -28.3887
  10   2.0000      -0.700719       -19.0675
  11   2.0000      -0.700463       -19.0606
  12   2.0000      -0.631950       -17.1962
  13   2.0000      -0.631663       -17.1884
  14   2.0000      -0.630765       -17.1640
  15   2.0000      -0.629632       -17.1332
  16   2.0000      -0.556336       -15.1387
  17   2.0000      -0.556108       -15.1325
  18   2.0000      -0.458102       -12.4656
  19   2.0000      -0.458091       -12.4653
  20   2.0000      -0.457962       -12.4618
  21   2.0000      -0.457571       -12.4512
  22   0.0000       0.119557         3.2533
  23   0.0000       0.119944         3.2638
  24   0.0000       0.171223         4.6592
  25   0.0000       0.171633         4.6704
  26   0.0000       0.171866         4.6767

MULLIKEN ATOMIC CHARGES
-----------------------
   0 C :   -0.280793
   1 H :    0.172524
   2 H :    0.171982
   3 H :    0.173825
   4 C :   -0.145485
   5 N :   -0.092053
   6 C :   -0.280483
   7 H :    0.173821
   8 H :    0.172128
   9 H :    0.172349
  10 C :   -0.145314
  11 N :   -0.092502
Sum of atomic charges:    0.0000000

LOEWDIN ATOMIC CHARGES
----------------------
   0 C :   -0.283640
   1 H :    0.151606
   2 H :    0.151578
   3 H :    0.153648
   4 C :   -0.218636
   5 N :    0.045444
   6 C :   -0.283814
   7 H :    0.153464
   8 H :    0.151114
   9 H :    0.153155
  10 C :   -0.219137
  11 N :    0.045219

  Mayer bond orders larger than 0.100000
B(  0-C ,  1-H ) :   0.9161 B(  0-C ,  2-H ) :   0.9167 B(  0-C ,  3-H ) :   0.9163
B(  0-C ,  4-C ) :   0.9025 B(  4-C ,  5-N ) :   2.8380 B(  6-C ,  7-H ) :   0.9160
B(  6-C ,  8-H ) :   0.9165 B(  6-C ,  9-H ) :   0.9163 B(  6-C , 10-C ) :   0.9022
B( 10-C , 11-N ) :   2.8379

MP2 TOTAL ENERGY:     -264.966716122 Eh
FINAL SINGLE POINT ENERGY      -264.966716122386

DIPOLE MOMENT
-------------
                                X             Y             Z
Electronic contribution:     -0.20072       0.18064       0.00666
Nuclear contribution   :      0.30023      -0.25438      -0.00863
                        -----------------------------------------
Total Dipole Moment    :      0.09951      -0.07374      -0.00197
                        -----------------------------------------
Magnitude (a.u.)       :      0.12387
Magnitude (Debye)      :      0.31485

Rotational constants in cm-1:     0.155798     0.009350     0.008851
Rotational constants in MHz :  4670.707448   280.308049   265.348401

                             ****ORCA TERMINATED NORMALLY****
TOTAL RUN TIME: 0 days 0 hours 0 minutes 34 seconds 257 msec
