                         Program Version 4.2.0 -  RELEASE  -
|  1> # 12meoh.boyd.etal.mol4,10
|  2> ! MP2 def2-TZVP EnGrad TightSCF
|  3>
|  4> %pal
|  5>     nprocs 6
|  6> end
|  7>
|  8> %maxcore 8000
|  9>
| 10> %scf
| 11>     ConvForced true
| 12> end
| 13>
| 14> *xyz 0 1
| 15> O  -1.358578914   1.232360421   1.189721000
| 16> H  -1.058250183   1.216459361   0.238591307
| 17> C  -0.389763452   1.957872567   1.943072362
| 18> H  -0.747220771   2.012806578   2.975200343
| 19> H  -0.260410585   2.982763209   1.565366540
| 20> H   0.585220638   1.453754179   1.934070793
| 21> O  -5.201143618   0.064582726  -0.172223772
| 22> H  -4.686891530   0.869258890   0.107806143
| 23> C  -6.513192168   0.171391798   0.359883449
| 24> H  -7.049381312  -0.749234190   0.111361174
| 25> H  -7.057741163   1.017801101  -0.081819420
| 26> H  -6.514770575   0.292264928   1.453058834
| 27> *
| 28>
| 29>                          ****END OF INPUT****

CARTESIAN COORDINATES (ANGSTROEM)
---------------------------------
  O     -1.358579    1.232360    1.189721
  H     -1.058250    1.216459    0.238591
  C     -0.389763    1.957873    1.943072
  H     -0.747221    2.012807    2.975200
  H     -0.260411    2.982763    1.565367
  H      0.585221    1.453754    1.934071
  O     -5.201144    0.064583   -0.172224
  H     -4.686892    0.869259    0.107806
  C     -6.513192    0.171392    0.359883
  H     -7.049381   -0.749234    0.111361
  H     -7.057741    1.017801   -0.081819
  H     -6.514771    0.292265    1.453059

 Total Charge           Charge          ....    0
 Multiplicity           Mult            ....    1
 Number of Electrons    NEL             ....   36
 Basis Dimension        Dim             ....  172

ORBITAL ENERGIES
----------------

  NO   OCC          E(Eh)            E(eV)
   0   2.0000     -20.561464      -559.5059
   1   2.0000     -20.549011      -559.1670
   2   2.0000     -11.274735      -306.8011
   3   2.0000     -11.264905      -306.5336
   4   2.0000      -1.348837       -36.7037
   5   2.0000      -1.339295       -36.4441
   6   2.0000      -0.922327       -25.0978
   7   2.0000      -0.912326       -24.8256
   8   2.0000      -0.683781       -18.6066
   9   2.0000      -0.674424       -18.3520
  10   2.0000      -0.619943       -16.8695
  11   2.0000      -0.609662       -16.5897
  12   2.0000      -0.593384       -16.1468
  13   2.0000      -0.584059       -15.8931
  14   2.0000      -0.503703       -13.7065
  15   2.0000      -0.492556       -13.4031
  16   2.0000      -0.452780       -12.3208
  17   2.0000      -0.440792       -11.9946
  18   0.0000       0.125156         3.4057
  19   0.0000       0.150262         4.0888
  20   0.0000       0.170354         4.6356
  21   0.0000       0.193659         5.2697
  22   0.0000       0.226279         6.1574

MULLIKEN ATOMIC CHARGES
-----------------------
   0 O :   -0.499148
   1 H :    0.324612
   2 C :   -0.174822
   3 H :    0.129965
   4 H :    0.109729
   5 H :    0.112281
   6 O :   -0.499269
   7 H :    0.326557
   8 C :   -0.171847
   9 H :    0.126375
  10 H :    0.105552
  11 H :    0.110016
Sum of atomic charges:   -0.0000000

LOEWDIN ATOMIC CHARGES
----------------------
   0 O :   -0.113661
   1 H :    0.192943
   2 C :   -0.379814
   3 H :    0.110489
   4 H :    0.095625
   5 H :    0.096300
   6 O :   -0.107142
   7 H :    0.192374
   8 C :   -0.385869
   9 H :    0.109285
  10 H :    0.093885
  11 H :    0.095587

  Mayer bond orders larger than 0.100000
B(  0-O ,  1-H ) :   0.8394 B(  0-O ,  2-C ) :   0.9223 B(  2-C ,  3-H ) :   0.9379
B(  2-C ,  4-H ) :   0.9384 B(  2-C ,  5-H ) :   0.9381 B(  6-O ,  7-H ) :   0.8367
B(  6-O ,  8-C ) :   0.9329 B(  8-C ,  9-H ) :   0.9379 B(  8-C , 10-H ) :   0.9395
B(  8-C , 11-H ) :   0.9384

MP2 TOTAL ENERGY:     -231.014509244 Eh
FINAL SINGLE POINT ENERGY      -231.014509243771

DIPOLE MOMENT
-------------
                                X             Y             Z
Electronic contribution:      0.38396      -1.20472      -1.52399
Nuclear contribution   :      0.03347       2.02785       1.65474
                        -----------------------------------------
Total Dipole Moment    :      0.41742       0.82314       0.13075
                        -----------------------------------------
Magnitude (a.u.)       :      0.93214
Magnitude (Debye)      :      2.36932

Rotational constants in cm-1:     0.911458     0.034236     0.033488
Rotational constants in MHz : 27324.814325  1026.355014  1003.930350

                             ****ORCA TERMINATED NORMALLY****
TOTAL RUN TIME: 0 days 0 hours 0 minutes 19 seconds 439 msec
