                         Program Version 4.2.0 -  RELEASE  -
|  1> # 12h2o.su.etal.mol0,1,2,3,5,8,11
|  2> ! MP2 def2-TZVP EnGrad TightSCF
|  3>
|  4> %pal
|  5>     nprocs 6
|  6> end
|  7>
|  8> %maxcore 8000
|  9>
| 10> %scf
| 11>     ConvForced true
| 12> end
| 13>
| 14> *xyz 0 1
| 15> O   1.794470000   0.923410000   2.768350000
| 16> H   2.338250000   1.359750000   3.430940000
| 17> H   0.879480000   1.303000000   2.865760000
| 18> O  -1.794470000  -0.923410000   2.768350000
| 19> H  -2.338250000  -1.359750000   3.430940000
| 20> H  -0.879480000  -1.303000000   2.865760000
| 21> O   0.923410000  -1.794470000  -2.768350000
| 22> H   1.359750000  -2.338250000  -3.430940000
| 23> H   1.303000000  -0.879480000  -2.865760000
| 24> O  -1.752130000  -0.741530000  -2.896280000
| 25> H  -2.036450000  -0.920500000  -1.984040000
| 26> H  -0.921210000  -1.242140000  -2.984230000
| 27> O   0.885520000  -1.737840000   0.052730000
| 28> H   1.284090000  -0.839590000   0.017130000
| 29> H   1.032320000  -2.090180000  -0.841890000
| 30> O   1.752130000   0.741530000  -2.896280000
| 31> H   2.036450000   0.920500000  -1.984040000
| 32> H   0.921210000   1.242140000  -2.984230000
| 33> O  -0.741530000   1.752130000   2.896280000
| 34> H  -0.920500000   2.036450000   1.984040000
| 35> H  -1.242140000   0.921210000   2.984230000
| 36> *
| 37>
| 38>                          ****END OF INPUT****

CARTESIAN COORDINATES (ANGSTROEM)
---------------------------------
  O      1.794470    0.923410    2.768350
  H      2.338250    1.359750    3.430940
  H      0.879480    1.303000    2.865760
  O     -1.794470   -0.923410    2.768350
  H     -2.338250   -1.359750    3.430940
  H     -0.879480   -1.303000    2.865760
  O      0.923410   -1.794470   -2.768350
  H      1.359750   -2.338250   -3.430940
  H      1.303000   -0.879480   -2.865760
  O     -1.752130   -0.741530   -2.896280
  H     -2.036450   -0.920500   -1.984040
  H     -0.921210   -1.242140   -2.984230
  O      0.885520   -1.737840    0.052730
  H      1.284090   -0.839590    0.017130
  H      1.032320   -2.090180   -0.841890
  O      1.752130    0.741530   -2.896280
  H      2.036450    0.920500   -1.984040
  H      0.921210    1.242140   -2.984230
  O     -0.741530    1.752130    2.896280
  H     -0.920500    2.036450    1.984040
  H     -1.242140    0.921210    2.984230

 Total Charge           Charge          ....    0
 Multiplicity           Mult            ....    1
 Number of Electrons    NEL             ....   70
 Basis Dimension        Dim             ....  301

ORBITAL ENERGIES
----------------

  NO   OCC          E(Eh)            E(eV)
   0   2.0000     -20.613101      -560.9110
   1   2.0000     -20.585641      -560.1638
   2   2.0000     -20.570296      -559.7462
   3   2.0000     -20.570234      -559.7445
   4   2.0000     -20.535503      -558.7994
   5   2.0000     -20.532020      -558.7047
   6   2.0000     -20.521292      -558.4127
   7   2.0000      -1.399318       -38.0774
   8   2.0000      -1.366734       -37.1907
   9   2.0000      -1.356637       -36.9160
  10   2.0000      -1.355646       -36.8890
  11   2.0000      -1.314734       -35.7757
  12   2.0000      -1.313600       -35.7449
  13   2.0000      -1.303046       -35.4577
  14   2.0000      -0.755220       -20.5506
  15   2.0000      -0.738837       -20.1048
  16   2.0000      -0.733134       -19.9496
  17   2.0000      -0.717268       -19.5178
  18   2.0000      -0.690424       -18.7874
  19   2.0000      -0.685475       -18.6527
  20   2.0000      -0.682588       -18.5742
  21   2.0000      -0.640040       -17.4164
  22   2.0000      -0.614345       -16.7172
  23   2.0000      -0.600921       -16.3519
  24   2.0000      -0.588515       -16.0143
  25   2.0000      -0.567051       -15.4303
  26   2.0000      -0.555660       -15.1203
  27   2.0000      -0.551031       -14.9943
  28   2.0000      -0.539165       -14.6714
  29   2.0000      -0.526775       -14.3343
  30   2.0000      -0.512008       -13.9324
  31   2.0000      -0.503168       -13.6919
  32   2.0000      -0.481532       -13.1032
  33   2.0000      -0.479353       -13.0439
  34   2.0000      -0.472107       -12.8467
  35   0.0000       0.086486         2.3534
  36   0.0000       0.116074         3.1585
  37   0.0000       0.143844         3.9142
  38   0.0000       0.153099         4.1660
  39   0.0000       0.163269         4.4428

MULLIKEN ATOMIC CHARGES
-----------------------
   0 O :   -0.738280
   1 H :    0.325497
   2 H :    0.363971
   3 O :   -0.705565
   4 H :    0.351792
   5 H :    0.379400
   6 O :   -0.747619
   7 H :    0.350616
   8 H :    0.380073
   9 O :   -0.717953
  10 H :    0.336945
  11 H :    0.360686
  12 O :   -0.695522
  13 H :    0.316600
  14 H :    0.365053
  15 O :   -0.683804
  16 H :    0.359627
  17 H :    0.373787
  18 O :   -0.699808
  19 H :    0.348771
  20 H :    0.375733
Sum of atomic charges:   -0.0000000

LOEWDIN ATOMIC CHARGES
----------------------
   0 O :   -0.376290
   1 H :    0.148825
   2 H :    0.140769
   3 O :   -0.311456
   4 H :    0.163717
   5 H :    0.195044
   6 O :   -0.311807
   7 H :    0.159348
   8 H :    0.145523
   9 O :   -0.351852
  10 H :    0.162778
  11 H :    0.145727
  12 O :   -0.346188
  13 H :    0.159146
  14 H :    0.147260
  15 O :   -0.266355
  16 H :    0.173862
  17 H :    0.181958
  18 O :   -0.283599
  19 H :    0.169261
  20 H :    0.154331

  Mayer bond orders larger than 0.100000
B(  0-O ,  1-H ) :   0.8600 B(  0-O ,  2-H ) :   0.7750 B(  3-O ,  4-H ) :   0.8418
B(  3-O ,  5-H ) :   0.8151 B(  6-O ,  7-H ) :   0.8402 B(  6-O ,  8-H ) :   0.7524
B(  9-O , 10-H ) :   0.8522 B(  9-O , 11-H ) :   0.8142 B( 12-O , 13-H ) :   0.8581
B( 12-O , 14-H ) :   0.8166 B( 15-O , 16-H ) :   0.8352 B( 15-O , 17-H ) :   0.8232
B( 18-O , 19-H ) :   0.8434 B( 18-O , 20-H ) :   0.7931

MP2 TOTAL ENERGY:     -534.241008681 Eh
FINAL SINGLE POINT ENERGY      -534.241008681362

DIPOLE MOMENT
-------------
                                X             Y             Z
Electronic contribution:     -0.22282       0.01797      -0.24734
Nuclear contribution   :      0.56744       0.30841       0.54442
                        -----------------------------------------
Total Dipole Moment    :      0.34461       0.32637       0.29708
                        -----------------------------------------
Magnitude (a.u.)       :      0.55994
Magnitude (Debye)      :      1.42326

Rotational constants in cm-1:     0.039756     0.015765     0.013988
Rotational constants in MHz :  1191.842296   472.613114   419.363105

                             ****ORCA TERMINATED NORMALLY****
TOTAL RUN TIME: 0 days 0 hours 1 minutes 57 seconds 615 msec
