                         Program Version 4.2.0 -  RELEASE  -
|  1> # 12h2o.su.etal.mol1,2,3,4,5,8
|  2> ! MP2 def2-TZVP EnGrad TightSCF
|  3>
|  4> %pal
|  5>     nprocs 6
|  6> end
|  7>
|  8> %maxcore 8000
|  9>
| 10> %scf
| 11>     ConvForced true
| 12> end
| 13>
| 14> *xyz 0 1
| 15> O  -1.794470000  -0.923410000   2.768350000
| 16> H  -2.338250000  -1.359750000   3.430940000
| 17> H  -0.879480000  -1.303000000   2.865760000
| 18> O   0.923410000  -1.794470000  -2.768350000
| 19> H   1.359750000  -2.338250000  -3.430940000
| 20> H   1.303000000  -0.879480000  -2.865760000
| 21> O  -1.752130000  -0.741530000  -2.896280000
| 22> H  -2.036450000  -0.920500000  -1.984040000
| 23> H  -0.921210000  -1.242140000  -2.984230000
| 24> O  -0.885520000   1.737840000   0.052730000
| 25> H  -1.032320000   2.090180000  -0.841890000
| 26> H  -1.284090000   0.839590000   0.017130000
| 27> O   0.885520000  -1.737840000   0.052730000
| 28> H   1.284090000  -0.839590000   0.017130000
| 29> H   1.032320000  -2.090180000  -0.841890000
| 30> O   1.752130000   0.741530000  -2.896280000
| 31> H   2.036450000   0.920500000  -1.984040000
| 32> H   0.921210000   1.242140000  -2.984230000
| 33> *
| 34>
| 35>                          ****END OF INPUT****

CARTESIAN COORDINATES (ANGSTROEM)
---------------------------------
  O     -1.794470   -0.923410    2.768350
  H     -2.338250   -1.359750    3.430940
  H     -0.879480   -1.303000    2.865760
  O      0.923410   -1.794470   -2.768350
  H      1.359750   -2.338250   -3.430940
  H      1.303000   -0.879480   -2.865760
  O     -1.752130   -0.741530   -2.896280
  H     -2.036450   -0.920500   -1.984040
  H     -0.921210   -1.242140   -2.984230
  O     -0.885520    1.737840    0.052730
  H     -1.032320    2.090180   -0.841890
  H     -1.284090    0.839590    0.017130
  O      0.885520   -1.737840    0.052730
  H      1.284090   -0.839590    0.017130
  H      1.032320   -2.090180   -0.841890
  O      1.752130    0.741530   -2.896280
  H      2.036450    0.920500   -1.984040
  H      0.921210    1.242140   -2.984230

 Total Charge           Charge          ....    0
 Multiplicity           Mult            ....    1
 Number of Electrons    NEL             ....   60
 Basis Dimension        Dim             ....  258

ORBITAL ENERGIES
----------------

  NO   OCC          E(Eh)            E(eV)
   0   2.0000     -20.618109      -561.0473
   1   2.0000     -20.577109      -559.9316
   2   2.0000     -20.564118      -559.5781
   3   2.0000     -20.553429      -559.2872
   4   2.0000     -20.546420      -559.0965
   5   2.0000     -20.543339      -559.0127
   6   2.0000      -1.404377       -38.2150
   7   2.0000      -1.363508       -37.1029
   8   2.0000      -1.339777       -36.4572
   9   2.0000      -1.328759       -36.1574
  10   2.0000      -1.325738       -36.0752
  11   2.0000      -1.324401       -36.0388
  12   2.0000      -0.760354       -20.6903
  13   2.0000      -0.745506       -20.2862
  14   2.0000      -0.701999       -19.1024
  15   2.0000      -0.696885       -18.9632
  16   2.0000      -0.695470       -18.9247
  17   2.0000      -0.693362       -18.8673
  18   2.0000      -0.646007       -17.5787
  19   2.0000      -0.607837       -16.5401
  20   2.0000      -0.579518       -15.7695
  21   2.0000      -0.576697       -15.6927
  22   2.0000      -0.565554       -15.3895
  23   2.0000      -0.563816       -15.3422
  24   2.0000      -0.546659       -14.8754
  25   2.0000      -0.519929       -14.1480
  26   2.0000      -0.507285       -13.8039
  27   2.0000      -0.496791       -13.5184
  28   2.0000      -0.491812       -13.3829
  29   2.0000      -0.490101       -13.3363
  30   0.0000       0.078316         2.1311
  31   0.0000       0.129994         3.5373
  32   0.0000       0.135285         3.6813
  33   0.0000       0.141397         3.8476
  34   0.0000       0.160871         4.3775

MULLIKEN ATOMIC CHARGES
-----------------------
   0 O :   -0.688170
   1 H :    0.335789
   2 H :    0.352918
   3 O :   -0.749305
   4 H :    0.352562
   5 H :    0.379962
   6 O :   -0.713584
   7 H :    0.332624
   8 H :    0.363263
   9 O :   -0.681350
  10 H :    0.327038
  11 H :    0.352445
  12 O :   -0.694486
  13 H :    0.314789
  14 H :    0.367798
  15 O :   -0.681069
  16 H :    0.359972
  17 H :    0.368805
Sum of atomic charges:    0.0000000

LOEWDIN ATOMIC CHARGES
----------------------
   0 O :   -0.340686
   1 H :    0.156680
   2 H :    0.184158
   3 O :   -0.312093
   4 H :    0.160303
   5 H :    0.145447
   6 O :   -0.347613
   7 H :    0.159313
   8 H :    0.147037
   9 O :   -0.334390
  10 H :    0.158435
  11 H :    0.174107
  12 O :   -0.344444
  13 H :    0.157529
  14 H :    0.148441
  15 O :   -0.264758
  16 H :    0.173625
  17 H :    0.178910

  Mayer bond orders larger than 0.100000
B(  0-O ,  1-H ) :   0.8545 B(  0-O ,  2-H ) :   0.8376 B(  3-O ,  4-H ) :   0.8390
B(  3-O ,  5-H ) :   0.7513 B(  6-O ,  7-H ) :   0.8535 B(  6-O ,  8-H ) :   0.8112
B(  9-O , 10-H ) :   0.8563 B(  9-O , 11-H ) :   0.8349 B( 12-O , 13-H ) :   0.8599
B( 12-O , 14-H ) :   0.8141 B( 15-O , 16-H ) :   0.8342 B( 15-O , 17-H ) :   0.8257

MP2 TOTAL ENERGY:     -457.910626572 Eh
FINAL SINGLE POINT ENERGY      -457.910626571641

DIPOLE MOMENT
-------------
                                X             Y             Z
Electronic contribution:      0.07128       0.22339      -0.14718
Nuclear contribution   :      0.98813      -0.37017      -0.17634
                        -----------------------------------------
Total Dipole Moment    :      1.05941      -0.14677      -0.32353
                        -----------------------------------------
Magnitude (a.u.)       :      1.11739
Magnitude (Debye)      :      2.84017

Rotational constants in cm-1:     0.051908     0.024431     0.022775
Rotational constants in MHz :  1556.159737   732.408077   682.769937

                             ****ORCA TERMINATED NORMALLY****
TOTAL RUN TIME: 0 days 0 hours 0 minutes 58 seconds 826 msec
