                         Program Version 4.2.0 -  RELEASE  -
|  1> # 12meoh.boyd.etal.mol6
|  2> ! MP2 def2-TZVP EnGrad TightSCF
|  3>
|  4> %pal
|  5>     nprocs 6
|  6> end
|  7>
|  8> %maxcore 8000
|  9>
| 10> %scf
| 11>     ConvForced true
| 12> end
| 13>
| 14> *xyz 0 1
| 15> O   2.622209273  -1.703002590  -1.445859723
| 16> H   1.828551432  -1.986513781  -0.909754968
| 17> C   2.781117675  -2.615822239  -2.525472890
| 18> H   3.691063626  -2.339003544  -3.065143454
| 19> H   1.934727323  -2.559520367  -3.223226661
| 20> H   2.879948338  -3.653846211  -2.177750170
| 21> *
| 22>
| 23>                          ****END OF INPUT****

CARTESIAN COORDINATES (ANGSTROEM)
---------------------------------
  O      2.622209   -1.703003   -1.445860
  H      1.828551   -1.986514   -0.909755
  C      2.781118   -2.615822   -2.525473
  H      3.691064   -2.339004   -3.065143
  H      1.934727   -2.559520   -3.223227
  H      2.879948   -3.653846   -2.177750

 Total Charge           Charge          ....    0
 Multiplicity           Mult            ....    1
 Number of Electrons    NEL             ....   18
 Basis Dimension        Dim             ....   86

ORBITAL ENERGIES
----------------

  NO   OCC          E(Eh)            E(eV)
   0   2.0000     -20.557727      -559.4042
   1   2.0000     -11.271601      -306.7158
   2   2.0000      -1.345836       -36.6220
   3   2.0000      -0.919298       -25.0154
   4   2.0000      -0.680840       -18.5266
   5   2.0000      -0.616968       -16.7886
   6   2.0000      -0.591081       -16.0841
   7   2.0000      -0.499736       -13.5985
   8   2.0000      -0.448898       -12.2151
   9   0.0000       0.134632         3.6635
  10   0.0000       0.175603         4.7784
  11   0.0000       0.229133         6.2350
  12   0.0000       0.230849         6.2817
  13   0.0000       0.254507         6.9255

MULLIKEN ATOMIC CHARGES
-----------------------
   0 O :   -0.497423
   1 H :    0.321765
   2 C :   -0.172243
   3 H :    0.129590
   4 H :    0.109020
   5 H :    0.109291
Sum of atomic charges:    0.0000000

LOEWDIN ATOMIC CHARGES
----------------------
   0 O :   -0.110928
   1 H :    0.192654
   2 C :   -0.382589
   3 H :    0.110391
   4 H :    0.095101
   5 H :    0.095371

  Mayer bond orders larger than 0.100000
B(  0-O ,  1-H ) :   0.8412 B(  0-O ,  2-C ) :   0.9265 B(  2-C ,  3-H ) :   0.9374
B(  2-C ,  4-H ) :   0.9390 B(  2-C ,  5-H ) :   0.9389

MP2 TOTAL ENERGY:     -115.506349436 Eh
FINAL SINGLE POINT ENERGY      -115.506349435724

DIPOLE MOMENT
-------------
                                X             Y             Z
Electronic contribution:     -0.06911       1.21928       1.31130
Nuclear contribution   :     -0.35109      -1.76562      -1.41988
                        -----------------------------------------
Total Dipole Moment    :     -0.42020      -0.54634      -0.10858
                        -----------------------------------------
Magnitude (a.u.)       :      0.69774
Magnitude (Debye)      :      1.77353

Rotational constants in cm-1:     4.191785     0.822404     0.791005
Rotational constants in MHz : 125666.541550 24655.044300 23713.733411

                             ****ORCA TERMINATED NORMALLY****
TOTAL RUN TIME: 0 days 0 hours 0 minutes 10 seconds 739 msec
