                         Program Version 4.2.0 -  RELEASE  -
|  1> # 12meoh.boyd.etal.mol2,8,11
|  2> ! MP2 def2-TZVP EnGrad TightSCF
|  3>
|  4> %pal
|  5>     nprocs 6
|  6> end
|  7>
|  8> %maxcore 8000
|  9>
| 10> %scf
| 11>     ConvForced true
| 12> end
| 13>
| 14> *xyz 0 1
| 15> O  -3.839777402   2.233595098   0.660436763
| 16> H  -2.958345897   1.907036203   0.973588449
| 17> C  -3.600368059   3.168790682  -0.390480452
| 18> H  -4.551709193   3.344148967  -0.901254863
| 19> H  -2.868237594   2.789240199  -1.113617525
| 20> H  -3.243594915   4.128998607   0.009549480
| 21> O   3.570084754   2.361662577  -0.202416728
| 22> H   3.393280933   1.755669977   0.560634073
| 23> C   4.368082883   1.644741793  -1.143112807
| 24> H   4.552851717   2.311801738  -1.989632421
| 25> H   3.862427494   0.740851663  -1.508095690
| 26> H   5.333949674   1.357289092  -0.706288100
| 27> O   3.252955559   0.588596242   1.858934315
| 28> H   3.621209177  -0.251605199   1.476063364
| 29> C   4.040824528   0.944288422   2.989639460
| 30> H   3.670521436   1.902573549   3.363847391
| 31> H   5.103749934   1.055868619   2.734277559
| 32> H   3.948540682   0.200279590   3.792908518
| 33> *
| 34>
| 35>                          ****END OF INPUT****

CARTESIAN COORDINATES (ANGSTROEM)
---------------------------------
  O     -3.839777    2.233595    0.660437
  H     -2.958346    1.907036    0.973588
  C     -3.600368    3.168791   -0.390480
  H     -4.551709    3.344149   -0.901255
  H     -2.868238    2.789240   -1.113618
  H     -3.243595    4.128999    0.009549
  O      3.570085    2.361663   -0.202417
  H      3.393281    1.755670    0.560634
  C      4.368083    1.644742   -1.143113
  H      4.552852    2.311802   -1.989632
  H      3.862427    0.740852   -1.508096
  H      5.333950    1.357289   -0.706288
  O      3.252956    0.588596    1.858934
  H      3.621209   -0.251605    1.476063
  C      4.040825    0.944288    2.989639
  H      3.670521    1.902574    3.363847
  H      5.103750    1.055869    2.734278
  H      3.948541    0.200280    3.792909

 Total Charge           Charge          ....    0
 Multiplicity           Mult            ....    1
 Number of Electrons    NEL             ....   54
 Basis Dimension        Dim             ....  258

ORBITAL ENERGIES
----------------

  NO   OCC          E(Eh)            E(eV)
   0   2.0000     -20.592968      -560.3631
   1   2.0000     -20.551643      -559.2386
   2   2.0000     -20.523175      -558.4640
   3   2.0000     -11.292577      -307.2866
   4   2.0000     -11.266351      -306.5730
   5   2.0000     -11.259581      -306.3888
   6   2.0000      -1.385638       -37.7051
   7   2.0000      -1.341124       -36.4938
   8   2.0000      -1.319473       -35.9047
   9   2.0000      -0.944488       -25.7008
  10   2.0000      -0.914235       -24.8776
  11   2.0000      -0.905850       -24.6494
  12   2.0000      -0.715436       -19.4680
  13   2.0000      -0.681412       -18.5422
  14   2.0000      -0.676239       -18.4014
  15   2.0000      -0.635760       -17.2999
  16   2.0000      -0.616090       -16.7647
  17   2.0000      -0.611310       -16.6346
  18   2.0000      -0.600490       -16.3402
  19   2.0000      -0.584731       -15.9113
  20   2.0000      -0.569254       -15.4902
  21   2.0000      -0.530085       -14.4243
  22   2.0000      -0.496323       -13.5056
  23   2.0000      -0.494749       -13.4628
  24   2.0000      -0.464008       -12.6263
  25   2.0000      -0.443889       -12.0788
  26   2.0000      -0.426529       -11.6065
  27   0.0000       0.110135         2.9969
  28   0.0000       0.141170         3.8414
  29   0.0000       0.156753         4.2655
  30   0.0000       0.174596         4.7510
  31   0.0000       0.181840         4.9481

MULLIKEN ATOMIC CHARGES
-----------------------
   0 O :   -0.499069
   1 H :    0.322538
   2 C :   -0.174475
   3 H :    0.126793
   4 H :    0.113663
   5 H :    0.110550
   6 O :   -0.521192
   7 H :    0.357838
   8 C :   -0.193565
   9 H :    0.128734
  10 H :    0.101641
  11 H :    0.095480
  12 O :   -0.517828
  13 H :    0.340502
  14 C :   -0.192151
  15 H :    0.147829
  16 H :    0.126861
  17 H :    0.125851
Sum of atomic charges:   -0.0000000

LOEWDIN ATOMIC CHARGES
----------------------
   0 O :   -0.112030
   1 H :    0.188605
   2 C :   -0.378365
   3 H :    0.108963
   4 H :    0.096703
   5 H :    0.096123
   6 O :   -0.120143
   7 H :    0.159365
   8 C :   -0.395666
   9 H :    0.108516
  10 H :    0.090635
  11 H :    0.089126
  12 O :   -0.077749
  13 H :    0.197328
  14 C :   -0.374290
  15 H :    0.117209
  16 H :    0.101930
  17 H :    0.103738

  Mayer bond orders larger than 0.100000
B(  0-O ,  1-H ) :   0.8434 B(  0-O ,  2-C ) :   0.9257 B(  2-C ,  3-H ) :   0.9379
B(  2-C ,  4-H ) :   0.9413 B(  2-C ,  5-H ) :   0.9379 B(  6-O ,  7-H ) :   0.7961
B(  6-O ,  8-C ) :   0.9432 B(  8-C ,  9-H ) :   0.9428 B(  8-C , 10-H ) :   0.9399
B(  8-C , 11-H ) :   0.9344 B( 12-O , 13-H ) :   0.8294 B( 12-O , 14-C ) :   0.8737
B( 14-C , 15-H ) :   0.9392 B( 14-C , 16-H ) :   0.9365 B( 14-C , 17-H ) :   0.9347

MP2 TOTAL ENERGY:     -346.529485161 Eh
FINAL SINGLE POINT ENERGY      -346.529485160998

DIPOLE MOMENT
-------------
                                X             Y             Z
Electronic contribution:     -2.54960      -0.56976       1.31399
Nuclear contribution   :      3.92343      -0.39524      -0.89548
                        -----------------------------------------
Total Dipole Moment    :      1.37383      -0.96500       0.41851
                        -----------------------------------------
Magnitude (a.u.)       :      1.73025
Magnitude (Debye)      :      4.39796

Rotational constants in cm-1:     0.074239     0.013077     0.011434
Rotational constants in MHz :  2225.640871   392.044700   342.782969

                             ****ORCA TERMINATED NORMALLY****
TOTAL RUN TIME: 0 days 0 hours 0 minutes 56 seconds 565 msec
