                         Program Version 4.2.0 -  RELEASE  -
|  1> # 12h2o.su.etal.mol0,1,4,6,9
|  2> ! MP2 def2-TZVP EnGrad TightSCF
|  3>
|  4> %pal
|  5>     nprocs 6
|  6> end
|  7>
|  8> %maxcore 8000
|  9>
| 10> %scf
| 11>     ConvForced true
| 12> end
| 13>
| 14> *xyz 0 1
| 15> O   1.794470000   0.923410000   2.768350000
| 16> H   2.338250000   1.359750000   3.430940000
| 17> H   0.879480000   1.303000000   2.865760000
| 18> O  -1.794470000  -0.923410000   2.768350000
| 19> H  -2.338250000  -1.359750000   3.430940000
| 20> H  -0.879480000  -1.303000000   2.865760000
| 21> O  -0.885520000   1.737840000   0.052730000
| 22> H  -1.032320000   2.090180000  -0.841890000
| 23> H  -1.284090000   0.839590000   0.017130000
| 24> O   1.737840000   0.885520000  -0.052730000
| 25> H   2.090180000   1.032320000   0.841890000
| 26> H   0.839590000   1.284090000  -0.017130000
| 27> O   0.741530000  -1.752130000   2.896280000
| 28> H   0.920500000  -2.036450000   1.984040000
| 29> H   1.242140000  -0.921210000   2.984230000
| 30> *
| 31>
| 32>                          ****END OF INPUT****

CARTESIAN COORDINATES (ANGSTROEM)
---------------------------------
  O      1.794470    0.923410    2.768350
  H      2.338250    1.359750    3.430940
  H      0.879480    1.303000    2.865760
  O     -1.794470   -0.923410    2.768350
  H     -2.338250   -1.359750    3.430940
  H     -0.879480   -1.303000    2.865760
  O     -0.885520    1.737840    0.052730
  H     -1.032320    2.090180   -0.841890
  H     -1.284090    0.839590    0.017130
  O      1.737840    0.885520   -0.052730
  H      2.090180    1.032320    0.841890
  H      0.839590    1.284090   -0.017130
  O      0.741530   -1.752130    2.896280
  H      0.920500   -2.036450    1.984040
  H      1.242140   -0.921210    2.984230

 Total Charge           Charge          ....    0
 Multiplicity           Mult            ....    1
 Number of Electrons    NEL             ....   50
 Basis Dimension        Dim             ....  215

ORBITAL ENERGIES
----------------

  NO   OCC          E(Eh)            E(eV)
   0   2.0000     -20.608844      -560.7952
   1   2.0000     -20.586509      -560.1874
   2   2.0000     -20.569336      -559.7201
   3   2.0000     -20.521911      -558.4296
   4   2.0000     -20.507917      -558.0488
   5   2.0000      -1.389493       -37.8100
   6   2.0000      -1.367113       -37.2010
   7   2.0000      -1.357876       -36.9497
   8   2.0000      -1.303615       -35.4732
   9   2.0000      -1.292431       -35.1688
  10   2.0000      -0.755080       -20.5468
  11   2.0000      -0.724794       -19.7227
  12   2.0000      -0.720061       -19.5939
  13   2.0000      -0.690849       -18.7990
  14   2.0000      -0.678370       -18.4594
  15   2.0000      -0.630630       -17.1603
  16   2.0000      -0.608326       -16.5534
  17   2.0000      -0.596668       -16.2362
  18   2.0000      -0.565548       -15.3893
  19   2.0000      -0.549115       -14.9422
  20   2.0000      -0.534448       -14.5431
  21   2.0000      -0.506727       -13.7887
  22   2.0000      -0.502773       -13.6811
  23   2.0000      -0.472731       -12.8637
  24   2.0000      -0.458675       -12.4812
  25   0.0000       0.098783         2.6880
  26   0.0000       0.128811         3.5051
  27   0.0000       0.152501         4.1498
  28   0.0000       0.176388         4.7998
  29   0.0000       0.195625         5.3232

MULLIKEN ATOMIC CHARGES
-----------------------
   0 O :   -0.720607
   1 H :    0.362247
   2 H :    0.381601
   3 O :   -0.741225
   4 H :    0.327105
   5 H :    0.365540
   6 O :   -0.688950
   7 H :    0.354499
   8 H :    0.369604
   9 O :   -0.731496
  10 H :    0.353530
  11 H :    0.338566
  12 O :   -0.702738
  13 H :    0.358370
  14 H :    0.373954
Sum of atomic charges:   -0.0000000

LOEWDIN ATOMIC CHARGES
----------------------
   0 O :   -0.287624
   1 H :    0.167119
   2 H :    0.195536
   3 O :   -0.377360
   4 H :    0.149607
   5 H :    0.141003
   6 O :   -0.293304
   7 H :    0.172181
   8 H :    0.184127
   9 O :   -0.370362
  10 H :    0.140591
  11 H :    0.135153
  12 O :   -0.282663
  13 H :    0.173155
  14 H :    0.152841

  Mayer bond orders larger than 0.100000
B(  0-O ,  1-H ) :   0.8328 B(  0-O ,  2-H ) :   0.8114 B(  3-O ,  4-H ) :   0.8594
B(  3-O ,  5-H ) :   0.7736 B(  6-O ,  7-H ) :   0.8396 B(  6-O ,  8-H ) :   0.8243
B(  9-O , 10-H ) :   0.8361 B(  9-O , 11-H ) :   0.8097 B( 12-O , 13-H ) :   0.8358
B( 12-O , 14-H ) :   0.8028

MP2 TOTAL ENERGY:     -381.599420996 Eh
FINAL SINGLE POINT ENERGY      -381.599420996216

DIPOLE MOMENT
-------------
                                X             Y             Z
Electronic contribution:      0.19902       0.08083       0.03980
Nuclear contribution   :     -0.34268       0.45452       0.57908
                        -----------------------------------------
Total Dipole Moment    :     -0.14366       0.53535       0.61888
                        -----------------------------------------
Magnitude (a.u.)       :      0.83081
Magnitude (Debye)      :      2.11175

Rotational constants in cm-1:     0.074016     0.050331     0.035828
Rotational constants in MHz :  2218.956319  1508.878295  1074.094328

                             ****ORCA TERMINATED NORMALLY****
TOTAL RUN TIME: 0 days 0 hours 0 minutes 32 seconds 209 msec
