                         Program Version 4.2.0 -  RELEASE  -
|  1> # 12h2o.su.etal.mol0,1,2,4,6,8,10,11
|  2> ! MP2 def2-TZVP EnGrad TightSCF
|  3>
|  4> %pal
|  5>     nprocs 6
|  6> end
|  7>
|  8> %maxcore 8000
|  9>
| 10> %scf
| 11>     ConvForced true
| 12> end
| 13>
| 14> *xyz 0 1
| 15> O   1.794470000   0.923410000   2.768350000
| 16> H   2.338250000   1.359750000   3.430940000
| 17> H   0.879480000   1.303000000   2.865760000
| 18> O  -1.794470000  -0.923410000   2.768350000
| 19> H  -2.338250000  -1.359750000   3.430940000
| 20> H  -0.879480000  -1.303000000   2.865760000
| 21> O   0.923410000  -1.794470000  -2.768350000
| 22> H   1.359750000  -2.338250000  -3.430940000
| 23> H   1.303000000  -0.879480000  -2.865760000
| 24> O  -0.885520000   1.737840000   0.052730000
| 25> H  -1.032320000   2.090180000  -0.841890000
| 26> H  -1.284090000   0.839590000   0.017130000
| 27> O   1.737840000   0.885520000  -0.052730000
| 28> H   2.090180000   1.032320000   0.841890000
| 29> H   0.839590000   1.284090000  -0.017130000
| 30> O   1.752130000   0.741530000  -2.896280000
| 31> H   2.036450000   0.920500000  -1.984040000
| 32> H   0.921210000   1.242140000  -2.984230000
| 33> O  -0.923410000   1.794470000  -2.768350000
| 34> H  -1.359750000   2.338250000  -3.430940000
| 35> H  -1.303000000   0.879480000  -2.865760000
| 36> O  -0.741530000   1.752130000   2.896280000
| 37> H  -0.920500000   2.036450000   1.984040000
| 38> H  -1.242140000   0.921210000   2.984230000
| 39> *
| 40>
| 41>                          ****END OF INPUT****

CARTESIAN COORDINATES (ANGSTROEM)
---------------------------------
  O      1.794470    0.923410    2.768350
  H      2.338250    1.359750    3.430940
  H      0.879480    1.303000    2.865760
  O     -1.794470   -0.923410    2.768350
  H     -2.338250   -1.359750    3.430940
  H     -0.879480   -1.303000    2.865760
  O      0.923410   -1.794470   -2.768350
  H      1.359750   -2.338250   -3.430940
  H      1.303000   -0.879480   -2.865760
  O     -0.885520    1.737840    0.052730
  H     -1.032320    2.090180   -0.841890
  H     -1.284090    0.839590    0.017130
  O      1.737840    0.885520   -0.052730
  H      2.090180    1.032320    0.841890
  H      0.839590    1.284090   -0.017130
  O      1.752130    0.741530   -2.896280
  H      2.036450    0.920500   -1.984040
  H      0.921210    1.242140   -2.984230
  O     -0.923410    1.794470   -2.768350
  H     -1.359750    2.338250   -3.430940
  H     -1.303000    0.879480   -2.865760
  O     -0.741530    1.752130    2.896280
  H     -0.920500    2.036450    1.984040
  H     -1.242140    0.921210    2.984230

 Total Charge           Charge          ....    0
 Multiplicity           Mult            ....    1
 Number of Electrons    NEL             ....   80
 Basis Dimension        Dim             ....  344

ORBITAL ENERGIES
----------------

  NO   OCC          E(Eh)            E(eV)
   0   2.0000     -20.623797      -561.2021
   1   2.0000     -20.596729      -560.4655
   2   2.0000     -20.592273      -560.3442
   3   2.0000     -20.552473      -559.2612
   4   2.0000     -20.531537      -558.6915
   5   2.0000     -20.530858      -558.6730
   6   2.0000     -20.509610      -558.0949
   7   2.0000     -20.499665      -557.8242
   8   2.0000      -1.404698       -38.2238
   9   2.0000      -1.378339       -37.5065
  10   2.0000      -1.374508       -37.4023
  11   2.0000      -1.344870       -36.5958
  12   2.0000      -1.325504       -36.0688
  13   2.0000      -1.314573       -35.7714
  14   2.0000      -1.293755       -35.2049
  15   2.0000      -1.280838       -34.8534
  16   2.0000      -0.769745       -20.9458
  17   2.0000      -0.743268       -20.2253
  18   2.0000      -0.741838       -20.1864
  19   2.0000      -0.710002       -19.3201
  20   2.0000      -0.697972       -18.9928
  21   2.0000      -0.694044       -18.8859
  22   2.0000      -0.677478       -18.4351
  23   2.0000      -0.666964       -18.1490
  24   2.0000      -0.648789       -17.6544
  25   2.0000      -0.626367       -17.0443
  26   2.0000      -0.609267       -16.5790
  27   2.0000      -0.591842       -16.1048
  28   2.0000      -0.580153       -15.7868
  29   2.0000      -0.568506       -15.4698
  30   2.0000      -0.553412       -15.0591
  31   2.0000      -0.544007       -14.8032
  32   2.0000      -0.532931       -14.5018
  33   2.0000      -0.523880       -14.2555
  34   2.0000      -0.513077       -13.9615
  35   2.0000      -0.494328       -13.4513
  36   2.0000      -0.478884       -13.0311
  37   2.0000      -0.471731       -12.8365
  38   2.0000      -0.460828       -12.5398
  39   2.0000      -0.450321       -12.2538
  40   0.0000       0.087843         2.3903
  41   0.0000       0.108095         2.9414
  42   0.0000       0.150355         4.0914
  43   0.0000       0.159644         4.3441
  44   0.0000       0.176676         4.8076

MULLIKEN ATOMIC CHARGES
-----------------------
   0 O :   -0.740719
   1 H :    0.331865
   2 H :    0.369614
   3 O :   -0.708298
   4 H :    0.357246
   5 H :    0.374864
   6 O :   -0.744158
   7 H :    0.319119
   8 H :    0.370875
   9 O :   -0.724292
  10 H :    0.386011
  11 H :    0.362585
  12 O :   -0.743798
  13 H :    0.370497
  14 H :    0.340019
  15 O :   -0.718344
  16 H :    0.390055
  17 H :    0.350820
  18 O :   -0.722890
  19 H :    0.369253
  20 H :    0.379523
  21 O :   -0.716966
  22 H :    0.382888
  23 H :    0.364232
Sum of atomic charges:   -0.0000000

LOEWDIN ATOMIC CHARGES
----------------------
   0 O :   -0.344342
   1 H :    0.151180
   2 H :    0.142707
   3 O :   -0.313338
   4 H :    0.166038
   5 H :    0.194031
   6 O :   -0.379668
   7 H :    0.145287
   8 H :    0.141833
   9 O :   -0.283638
  10 H :    0.155990
  11 H :    0.179753
  12 O :   -0.348224
  13 H :    0.149991
  14 H :    0.135893
  15 O :   -0.290250
  16 H :    0.158501
  17 H :    0.142962
  18 O :   -0.287539
  19 H :    0.170442
  20 H :    0.195606
  21 O :   -0.286837
  22 H :    0.154743
  23 H :    0.148879

  Mayer bond orders larger than 0.100000
B(  0-O ,  1-H ) :   0.8531 B(  0-O ,  2-H ) :   0.7536 B(  2-H , 21-O ) :   0.1087
B(  3-O ,  4-H ) :   0.8391 B(  3-O ,  5-H ) :   0.8197 B(  6-O ,  7-H ) :   0.8637
B(  6-O ,  8-H ) :   0.7670 B(  8-H , 15-O ) :   0.1045 B(  9-O , 10-H ) :   0.7973
B(  9-O , 11-H ) :   0.8270 B( 12-O , 13-H ) :   0.8065 B( 12-O , 14-H ) :   0.8014
B( 15-O , 16-H ) :   0.7895 B( 15-O , 17-H ) :   0.8274 B( 18-O , 19-H ) :   0.8295
B( 18-O , 20-H ) :   0.8125 B( 21-O , 22-H ) :   0.8086 B( 21-O , 23-H ) :   0.8061

MP2 TOTAL ENERGY:     -610.580361851 Eh
FINAL SINGLE POINT ENERGY      -610.580361850929

DIPOLE MOMENT
-------------
                                X             Y             Z
Electronic contribution:     -0.32463       0.32106       0.12043
Nuclear contribution   :     -1.92896       0.11024       0.00000
                        -----------------------------------------
Total Dipole Moment    :     -2.25359       0.43130       0.12043
                        -----------------------------------------
Magnitude (a.u.)       :      2.29765
Magnitude (Debye)      :      5.84017

Rotational constants in cm-1:     0.035710     0.015115     0.014646
Rotational constants in MHz :  1070.570808   453.129644   439.067652

                             ****ORCA TERMINATED NORMALLY****
TOTAL RUN TIME: 0 days 0 hours 2 minutes 52 seconds 906 msec
