                         Program Version 4.2.0 -  RELEASE  -
|  1> # 12h2o.su.etal.mol1,4,5,9,10,11
|  2> ! MP2 def2-TZVP EnGrad TightSCF
|  3>
|  4> %pal
|  5>     nprocs 6
|  6> end
|  7>
|  8> %maxcore 8000
|  9>
| 10> %scf
| 11>     ConvForced true
| 12> end
| 13>
| 14> *xyz 0 1
| 15> O  -1.794470000  -0.923410000   2.768350000
| 16> H  -2.338250000  -1.359750000   3.430940000
| 17> H  -0.879480000  -1.303000000   2.865760000
| 18> O  -0.885520000   1.737840000   0.052730000
| 19> H  -1.032320000   2.090180000  -0.841890000
| 20> H  -1.284090000   0.839590000   0.017130000
| 21> O   0.885520000  -1.737840000   0.052730000
| 22> H   1.284090000  -0.839590000   0.017130000
| 23> H   1.032320000  -2.090180000  -0.841890000
| 24> O   0.741530000  -1.752130000   2.896280000
| 25> H   0.920500000  -2.036450000   1.984040000
| 26> H   1.242140000  -0.921210000   2.984230000
| 27> O  -0.923410000   1.794470000  -2.768350000
| 28> H  -1.359750000   2.338250000  -3.430940000
| 29> H  -1.303000000   0.879480000  -2.865760000
| 30> O  -0.741530000   1.752130000   2.896280000
| 31> H  -0.920500000   2.036450000   1.984040000
| 32> H  -1.242140000   0.921210000   2.984230000
| 33> *
| 34>
| 35>                          ****END OF INPUT****

CARTESIAN COORDINATES (ANGSTROEM)
---------------------------------
  O     -1.794470   -0.923410    2.768350
  H     -2.338250   -1.359750    3.430940
  H     -0.879480   -1.303000    2.865760
  O     -0.885520    1.737840    0.052730
  H     -1.032320    2.090180   -0.841890
  H     -1.284090    0.839590    0.017130
  O      0.885520   -1.737840    0.052730
  H      1.284090   -0.839590    0.017130
  H      1.032320   -2.090180   -0.841890
  O      0.741530   -1.752130    2.896280
  H      0.920500   -2.036450    1.984040
  H      1.242140   -0.921210    2.984230
  O     -0.923410    1.794470   -2.768350
  H     -1.359750    2.338250   -3.430940
  H     -1.303000    0.879480   -2.865760
  O     -0.741530    1.752130    2.896280
  H     -0.920500    2.036450    1.984040
  H     -1.242140    0.921210    2.984230

 Total Charge           Charge          ....    0
 Multiplicity           Mult            ....    1
 Number of Electrons    NEL             ....   60
 Basis Dimension        Dim             ....  258

ORBITAL ENERGIES
----------------

  NO   OCC          E(Eh)            E(eV)
   0   2.0000     -20.602774      -560.6300
   1   2.0000     -20.597857      -560.4962
   2   2.0000     -20.565848      -559.6252
   3   2.0000     -20.550621      -559.2108
   4   2.0000     -20.527962      -558.5942
   5   2.0000     -20.486768      -557.4733
   6   2.0000      -1.380663       -37.5697
   7   2.0000      -1.376964       -37.4691
   8   2.0000      -1.353971       -36.8434
   9   2.0000      -1.331841       -36.2412
  10   2.0000      -1.311603       -35.6905
  11   2.0000      -1.271784       -34.6070
  12   2.0000      -0.747658       -20.3448
  13   2.0000      -0.739909       -20.1339
  14   2.0000      -0.714252       -19.4358
  15   2.0000      -0.700948       -19.0738
  16   2.0000      -0.695672       -18.9302
  17   2.0000      -0.648335       -17.6421
  18   2.0000      -0.624021       -16.9805
  19   2.0000      -0.618325       -16.8255
  20   2.0000      -0.591858       -16.1053
  21   2.0000      -0.577698       -15.7200
  22   2.0000      -0.555736       -15.1223
  23   2.0000      -0.541922       -14.7464
  24   2.0000      -0.540034       -14.6951
  25   2.0000      -0.514563       -14.0020
  26   2.0000      -0.500620       -13.6225
  27   2.0000      -0.493859       -13.4386
  28   2.0000      -0.473527       -12.8853
  29   2.0000      -0.437229       -11.8976
  30   0.0000       0.083532         2.2730
  31   0.0000       0.113519         3.0890
  32   0.0000       0.150982         4.1084
  33   0.0000       0.164593         4.4788
  34   0.0000       0.177166         4.8209

MULLIKEN ATOMIC CHARGES
-----------------------
   0 O :   -0.739676
   1 H :    0.333540
   2 H :    0.382416
   3 O :   -0.713612
   4 H :    0.370785
   5 H :    0.337261
   6 O :   -0.701691
   7 H :    0.359042
   8 H :    0.351458
   9 O :   -0.701305
  10 H :    0.383592
  11 H :    0.355331
  12 O :   -0.693991
  13 H :    0.355804
  14 H :    0.350670
  15 O :   -0.740227
  16 H :    0.364630
  17 H :    0.345974
Sum of atomic charges:   -0.0000000

LOEWDIN ATOMIC CHARGES
----------------------
   0 O :   -0.342164
   1 H :    0.152092
   2 H :    0.145751
   3 O :   -0.326381
   4 H :    0.151345
   5 H :    0.167469
   6 O :   -0.318672
   7 H :    0.179485
   8 H :    0.171888
   9 O :   -0.276128
  10 H :    0.158710
  11 H :    0.173000
  12 O :   -0.310594
  13 H :    0.165116
  14 H :    0.183812
  15 O :   -0.362812
  16 H :    0.147838
  17 H :    0.140244

  Mayer bond orders larger than 0.100000
B(  0-O ,  1-H ) :   0.8526 B(  0-O ,  2-H ) :   0.7585 B(  3-O ,  4-H ) :   0.8114
B(  3-O ,  5-H ) :   0.8419 B(  6-O ,  7-H ) :   0.8295 B(  6-O ,  8-H ) :   0.8418
B(  9-O , 10-H ) :   0.8048 B(  9-O , 11-H ) :   0.8347 B( 12-O , 13-H ) :   0.8398
B( 12-O , 14-H ) :   0.8369 B( 15-O , 16-H ) :   0.8258 B( 15-O , 17-H ) :   0.8190

MP2 TOTAL ENERGY:     -457.920096300 Eh
FINAL SINGLE POINT ENERGY      -457.920096300088

DIPOLE MOMENT
-------------
                                X             Y             Z
Electronic contribution:      0.32469      -0.05814      -0.06715
Nuclear contribution   :     -0.37017      -0.98813      -2.92077
                        -----------------------------------------
Total Dipole Moment    :     -0.04548      -1.04627      -2.98792
                        -----------------------------------------
Magnitude (a.u.)       :      3.16614
Magnitude (Debye)      :      8.04768

Rotational constants in cm-1:     0.055518     0.026805     0.020502
Rotational constants in MHz :  1664.389138   803.579029   614.640973

                             ****ORCA TERMINATED NORMALLY****
TOTAL RUN TIME: 0 days 0 hours 1 minutes 4 seconds 207 msec
