                         Program Version 4.2.0 -  RELEASE  -
|  1> # 12h2o.su.etal.mol3,4
|  2> ! MP2 def2-TZVP EnGrad TightSCF
|  3>
|  4> %pal
|  5>     nprocs 6
|  6> end
|  7>
|  8> %maxcore 8000
|  9>
| 10> %scf
| 11>     ConvForced true
| 12> end
| 13>
| 14> *xyz 0 1
| 15> O  -1.752130000  -0.741530000  -2.896280000
| 16> H  -2.036450000  -0.920500000  -1.984040000
| 17> H  -0.921210000  -1.242140000  -2.984230000
| 18> O  -0.885520000   1.737840000   0.052730000
| 19> H  -1.032320000   2.090180000  -0.841890000
| 20> H  -1.284090000   0.839590000   0.017130000
| 21> *
| 22>
| 23>                          ****END OF INPUT****

CARTESIAN COORDINATES (ANGSTROEM)
---------------------------------
  O     -1.752130   -0.741530   -2.896280
  H     -2.036450   -0.920500   -1.984040
  H     -0.921210   -1.242140   -2.984230
  O     -0.885520    1.737840    0.052730
  H     -1.032320    2.090180   -0.841890
  H     -1.284090    0.839590    0.017130

 Total Charge           Charge          ....    0
 Multiplicity           Mult            ....    1
 Number of Electrons    NEL             ....   20
 Basis Dimension        Dim             ....   86

ORBITAL ENERGIES
----------------

  NO   OCC          E(Eh)            E(eV)
   0   2.0000     -20.577841      -559.9515
   1   2.0000     -20.564925      -559.6001
   2   2.0000      -1.356853       -36.9218
   3   2.0000      -1.340757       -36.4838
   4   2.0000      -0.719740       -19.5851
   5   2.0000      -0.703033       -19.1305
   6   2.0000      -0.594056       -16.1651
   7   2.0000      -0.580038       -15.7836
   8   2.0000      -0.521401       -14.1880
   9   2.0000      -0.507560       -13.8114
  10   0.0000       0.093102         2.5334
  11   0.0000       0.156798         4.2667
  12   0.0000       0.177656         4.8343
  13   0.0000       0.234032         6.3683
  14   0.0000       0.502737        13.6802

MULLIKEN ATOMIC CHARGES
-----------------------
   0 O :   -0.668939
   1 H :    0.327943
   2 H :    0.343046
   3 O :   -0.670265
   4 H :    0.343690
   5 H :    0.324524
Sum of atomic charges:   -0.0000000

LOEWDIN ATOMIC CHARGES
----------------------
   0 O :   -0.327541
   1 H :    0.159852
   2 H :    0.169585
   3 O :   -0.334247
   4 H :    0.167347
   5 H :    0.165005

  Mayer bond orders larger than 0.100000
B(  0-O ,  1-H ) :   0.8565 B(  0-O ,  2-H ) :   0.8493 B(  3-O ,  4-H ) :   0.8488
B(  3-O ,  5-H ) :   0.8575

MP2 TOTAL ENERGY:     -152.626033665 Eh
FINAL SINGLE POINT ENERGY      -152.626033664679

DIPOLE MOMENT
-------------
                                X             Y             Z
Electronic contribution:      0.01167       0.17049      -0.02607
Nuclear contribution   :      0.00102      -1.02005      -0.08817
                        -----------------------------------------
Total Dipole Moment    :      0.01269      -0.84956      -0.11424
                        -----------------------------------------
Magnitude (a.u.)       :      0.85730
Magnitude (Debye)      :      2.17908

Rotational constants in cm-1:     6.098608     0.123365     0.122646
Rotational constants in MHz : 182831.675894  3698.395162  3676.845426

                             ****ORCA TERMINATED NORMALLY****
TOTAL RUN TIME: 0 days 0 hours 0 minutes 6 seconds 401 msec
