                         Program Version 4.2.0 -  RELEASE  -
|  1> # 12h2o.su.etal.mol0,3,4,6,7,8,9,10,11
|  2> ! MP2 def2-TZVP EnGrad TightSCF
|  3>
|  4> %pal
|  5>     nprocs 6
|  6> end
|  7>
|  8> %maxcore 8000
|  9>
| 10> %scf
| 11>     ConvForced true
| 12> end
| 13>
| 14> *xyz 0 1
| 15> O   1.794470000   0.923410000   2.768350000
| 16> H   2.338250000   1.359750000   3.430940000
| 17> H   0.879480000   1.303000000   2.865760000
| 18> O  -1.752130000  -0.741530000  -2.896280000
| 19> H  -2.036450000  -0.920500000  -1.984040000
| 20> H  -0.921210000  -1.242140000  -2.984230000
| 21> O  -0.885520000   1.737840000   0.052730000
| 22> H  -1.032320000   2.090180000  -0.841890000
| 23> H  -1.284090000   0.839590000   0.017130000
| 24> O   1.737840000   0.885520000  -0.052730000
| 25> H   2.090180000   1.032320000   0.841890000
| 26> H   0.839590000   1.284090000  -0.017130000
| 27> O  -1.737840000  -0.885520000  -0.052730000
| 28> H  -2.090180000  -1.032320000   0.841890000
| 29> H  -0.839590000  -1.284090000  -0.017130000
| 30> O   1.752130000   0.741530000  -2.896280000
| 31> H   2.036450000   0.920500000  -1.984040000
| 32> H   0.921210000   1.242140000  -2.984230000
| 33> O   0.741530000  -1.752130000   2.896280000
| 34> H   0.920500000  -2.036450000   1.984040000
| 35> H   1.242140000  -0.921210000   2.984230000
| 36> O  -0.923410000   1.794470000  -2.768350000
| 37> H  -1.359750000   2.338250000  -3.430940000
| 38> H  -1.303000000   0.879480000  -2.865760000
| 39> O  -0.741530000   1.752130000   2.896280000
| 40> H  -0.920500000   2.036450000   1.984040000
| 41> H  -1.242140000   0.921210000   2.984230000
| 42> *
| 43>
| 44>                          ****END OF INPUT****

CARTESIAN COORDINATES (ANGSTROEM)
---------------------------------
  O      1.794470    0.923410    2.768350
  H      2.338250    1.359750    3.430940
  H      0.879480    1.303000    2.865760
  O     -1.752130   -0.741530   -2.896280
  H     -2.036450   -0.920500   -1.984040
  H     -0.921210   -1.242140   -2.984230
  O     -0.885520    1.737840    0.052730
  H     -1.032320    2.090180   -0.841890
  H     -1.284090    0.839590    0.017130
  O      1.737840    0.885520   -0.052730
  H      2.090180    1.032320    0.841890
  H      0.839590    1.284090   -0.017130
  O     -1.737840   -0.885520   -0.052730
  H     -2.090180   -1.032320    0.841890
  H     -0.839590   -1.284090   -0.017130
  O      1.752130    0.741530   -2.896280
  H      2.036450    0.920500   -1.984040
  H      0.921210    1.242140   -2.984230
  O      0.741530   -1.752130    2.896280
  H      0.920500   -2.036450    1.984040
  H      1.242140   -0.921210    2.984230
  O     -0.923410    1.794470   -2.768350
  H     -1.359750    2.338250   -3.430940
  H     -1.303000    0.879480   -2.865760
  O     -0.741530    1.752130    2.896280
  H     -0.920500    2.036450    1.984040
  H     -1.242140    0.921210    2.984230

 Total Charge           Charge          ....    0
 Multiplicity           Mult            ....    1
 Number of Electrons    NEL             ....   90
 Basis Dimension        Dim             ....  387

ORBITAL ENERGIES
----------------

  NO   OCC          E(Eh)            E(eV)
   0   2.0000     -20.643670      -561.7428
   1   2.0000     -20.594502      -560.4049
   2   2.0000     -20.590624      -560.2994
   3   2.0000     -20.574969      -559.8734
   4   2.0000     -20.570089      -559.7406
   5   2.0000     -20.567793      -559.6781
   6   2.0000     -20.552737      -559.2684
   7   2.0000     -20.524509      -558.5003
   8   2.0000     -20.498055      -557.7804
   9   2.0000      -1.427149       -38.8347
  10   2.0000      -1.384528       -37.6749
  11   2.0000      -1.383230       -37.6396
  12   2.0000      -1.366867       -37.1943
  13   2.0000      -1.353515       -36.8310
  14   2.0000      -1.351716       -36.7821
  15   2.0000      -1.333774       -36.2938
  16   2.0000      -1.311202       -35.6796
  17   2.0000      -1.282769       -34.9059
  18   2.0000      -0.785440       -21.3729
  19   2.0000      -0.747401       -20.3378
  20   2.0000      -0.745314       -20.2810
  21   2.0000      -0.736415       -20.0389
  22   2.0000      -0.735196       -20.0057
  23   2.0000      -0.734363       -19.9830
  24   2.0000      -0.702525       -19.1167
  25   2.0000      -0.692272       -18.8377
  26   2.0000      -0.672705       -18.3052
  27   2.0000      -0.661307       -17.9951
  28   2.0000      -0.640149       -17.4193
  29   2.0000      -0.625609       -17.0237
  30   2.0000      -0.617044       -16.7906
  31   2.0000      -0.598790       -16.2939
  32   2.0000      -0.584830       -15.9140
  33   2.0000      -0.582044       -15.8382
  34   2.0000      -0.572116       -15.5681
  35   2.0000      -0.561764       -15.2864
  36   2.0000      -0.536769       -14.6062
  37   2.0000      -0.529526       -14.4091
  38   2.0000      -0.528356       -14.3773
  39   2.0000      -0.516981       -14.0678
  40   2.0000      -0.510234       -13.8842
  41   2.0000      -0.503927       -13.7125
  42   2.0000      -0.499672       -13.5968
  43   2.0000      -0.475723       -12.9451
  44   2.0000      -0.448180       -12.1956
  45   0.0000       0.067003         1.8232
  46   0.0000       0.119654         3.2559
  47   0.0000       0.131862         3.5881
  48   0.0000       0.136789         3.7222
  49   0.0000       0.160260         4.3609

MULLIKEN ATOMIC CHARGES
-----------------------
   0 O :   -0.752928
   1 H :    0.350375
   2 H :    0.386305
   3 O :   -0.697863
   4 H :    0.384445
   5 H :    0.364181
   6 O :   -0.751182
   7 H :    0.391346
   8 H :    0.351139
   9 O :   -0.752406
  10 H :    0.366804
  11 H :    0.346730
  12 O :   -0.719217
  13 H :    0.375729
  14 H :    0.373629
  15 O :   -0.737779
  16 H :    0.372022
  17 H :    0.342919
  18 O :   -0.712015
  19 H :    0.323173
  20 H :    0.369434
  21 O :   -0.751724
  22 H :    0.351162
  23 H :    0.384451
  24 O :   -0.696211
  25 H :    0.394764
  26 H :    0.342717
Sum of atomic charges:   -0.0000000

LOEWDIN ATOMIC CHARGES
----------------------
   0 O :   -0.313557
   1 H :    0.159310
   2 H :    0.146776
   3 O :   -0.271112
   4 H :    0.157326
   5 H :    0.177287
   6 O :   -0.301756
   7 H :    0.155968
   8 H :    0.138382
   9 O :   -0.350830
  10 H :    0.146343
  11 H :    0.135956
  12 O :   -0.275192
  13 H :    0.179489
  14 H :    0.184629
  15 O :   -0.361178
  16 H :    0.150356
  17 H :    0.137992
  18 O :   -0.347393
  19 H :    0.154648
  20 H :    0.149569
  21 O :   -0.312926
  22 H :    0.159785
  23 H :    0.146706
  24 O :   -0.272814
  25 H :    0.159631
  26 H :    0.166605

  Mayer bond orders larger than 0.100000
B(  0-O ,  1-H ) :   0.8403 B(  0-O ,  2-H ) :   0.7423 B(  3-O ,  4-H ) :   0.8098
B(  3-O ,  5-H ) :   0.8286 B(  6-O ,  7-H ) :   0.7863 B(  6-O ,  8-H ) :   0.7875
B(  9-O , 10-H ) :   0.8134 B(  9-O , 11-H ) :   0.7880 B( 12-O , 13-H ) :   0.8233
B( 12-O , 14-H ) :   0.8133 B( 15-O , 16-H ) :   0.8154 B( 15-O , 17-H ) :   0.8308
B( 18-O , 19-H ) :   0.8591 B( 18-O , 20-H ) :   0.8022 B( 21-O , 22-H ) :   0.8402
B( 21-O , 23-H ) :   0.7435 B( 24-O , 25-H ) :   0.7909 B( 24-O , 26-H ) :   0.8428

MP2 TOTAL ENERGY:     -686.915684252 Eh
FINAL SINGLE POINT ENERGY      -686.915684252354

DIPOLE MOMENT
-------------
                                X             Y             Z
Electronic contribution:     -0.47191      -0.06927      -0.02303
Nuclear contribution   :     -1.44207      -0.08423       0.77428
                        -----------------------------------------
Total Dipole Moment    :     -1.91398      -0.15350       0.75124
                        -----------------------------------------
Magnitude (a.u.)       :      2.06186
Magnitude (Debye)      :      5.24083

Rotational constants in cm-1:     0.031055     0.014802     0.013739
Rotational constants in MHz :   931.015869   443.747974   411.877604

                             ****ORCA TERMINATED NORMALLY****
TOTAL RUN TIME: 0 days 0 hours 4 minutes 50 seconds 148 msec
