                         Program Version 4.2.0 -  RELEASE  -
|  1> # 12meoh.boyd.etal.mol3,6,8
|  2> ! MP2 def2-TZVP EnGrad TightSCF
|  3>
|  4> %pal
|  5>     nprocs 6
|  6> end
|  7>
|  8> %maxcore 8000
|  9>
| 10> %scf
| 11>     ConvForced true
| 12> end
| 13>
| 14> *xyz 0 1
| 15> O  -3.821405976  -2.118091637   0.596795346
| 16> H  -4.342989117  -1.344303030   0.251966383
| 17> C  -3.443883586  -1.809641231   1.934889393
| 18> H  -2.831494349  -2.637429600   2.305201764
| 19> H  -4.325601146  -1.719364371   2.585074667
| 20> H  -2.858527126  -0.882644791   1.996110694
| 21> O   2.622209273  -1.703002590  -1.445859723
| 22> H   1.828551432  -1.986513781  -0.909754968
| 23> C   2.781117675  -2.615822239  -2.525472890
| 24> H   3.691063626  -2.339003544  -3.065143454
| 25> H   1.934727323  -2.559520367  -3.223226661
| 26> H   2.879948338  -3.653846211  -2.177750170
| 27> O   3.570084754   2.361662577  -0.202416728
| 28> H   3.393280933   1.755669977   0.560634073
| 29> C   4.368082883   1.644741793  -1.143112807
| 30> H   4.552851717   2.311801738  -1.989632421
| 31> H   3.862427494   0.740851663  -1.508095690
| 32> H   5.333949674   1.357289092  -0.706288100
| 33> *
| 34>
| 35>                          ****END OF INPUT****

CARTESIAN COORDINATES (ANGSTROEM)
---------------------------------
  O     -3.821406   -2.118092    0.596795
  H     -4.342989   -1.344303    0.251966
  C     -3.443884   -1.809641    1.934889
  H     -2.831494   -2.637430    2.305202
  H     -4.325601   -1.719364    2.585075
  H     -2.858527   -0.882645    1.996111
  O      2.622209   -1.703003   -1.445860
  H      1.828551   -1.986514   -0.909755
  C      2.781118   -2.615822   -2.525473
  H      3.691064   -2.339004   -3.065143
  H      1.934727   -2.559520   -3.223227
  H      2.879948   -3.653846   -2.177750
  O      3.570085    2.361663   -0.202417
  H      3.393281    1.755670    0.560634
  C      4.368083    1.644742   -1.143113
  H      4.552852    2.311802   -1.989632
  H      3.862427    0.740852   -1.508096
  H      5.333950    1.357289   -0.706288

 Total Charge           Charge          ....    0
 Multiplicity           Mult            ....    1
 Number of Electrons    NEL             ....   54
 Basis Dimension        Dim             ....  258

ORBITAL ENERGIES
----------------

  NO   OCC          E(Eh)            E(eV)
   0   2.0000     -20.563668      -559.5659
   1   2.0000     -20.561391      -559.5039
   2   2.0000     -20.544478      -559.0437
   3   2.0000     -11.275472      -306.8212
   4   2.0000     -11.275262      -306.8155
   5   2.0000     -11.255268      -306.2714
   6   2.0000      -1.351778       -36.7837
   7   2.0000      -1.350495       -36.7488
   8   2.0000      -1.333755       -36.2933
   9   2.0000      -0.923614       -25.1328
  10   2.0000      -0.922808       -25.1109
  11   2.0000      -0.904846       -24.6221
  12   2.0000      -0.686521       -18.6812
  13   2.0000      -0.684853       -18.6358
  14   2.0000      -0.667960       -18.1761
  15   2.0000      -0.621462       -16.9108
  16   2.0000      -0.621178       -16.9031
  17   2.0000      -0.603676       -16.4269
  18   2.0000      -0.594865       -16.1871
  19   2.0000      -0.593860       -16.1598
  20   2.0000      -0.576298       -15.6819
  21   2.0000      -0.505795       -13.7634
  22   2.0000      -0.504483       -13.7277
  23   2.0000      -0.486904       -13.2493
  24   2.0000      -0.454232       -12.3603
  25   2.0000      -0.453166       -12.3313
  26   2.0000      -0.435353       -11.8466
  27   0.0000       0.125079         3.4036
  28   0.0000       0.132828         3.6144
  29   0.0000       0.152478         4.1491
  30   0.0000       0.171445         4.6653
  31   0.0000       0.174109         4.7377

MULLIKEN ATOMIC CHARGES
-----------------------
   0 O :   -0.496712
   1 H :    0.322588
   2 C :   -0.176143
   3 H :    0.127420
   4 H :    0.111486
   5 H :    0.111364
   6 O :   -0.497867
   7 H :    0.323327
   8 C :   -0.171933
   9 H :    0.129132
  10 H :    0.113859
  11 H :    0.112190
  12 O :   -0.504707
  13 H :    0.318841
  14 C :   -0.180761
  15 H :    0.120173
  16 H :    0.135436
  17 H :    0.102308
Sum of atomic charges:    0.0000000

LOEWDIN ATOMIC CHARGES
----------------------
   0 O :   -0.110561
   1 H :    0.191335
   2 C :   -0.382327
   3 H :    0.109757
   4 H :    0.096256
   5 H :    0.095540
   6 O :   -0.110090
   7 H :    0.194150
   8 C :   -0.381141
   9 H :    0.110101
  10 H :    0.096979
  11 H :    0.096988
  12 O :   -0.113708
  13 H :    0.186615
  14 C :   -0.381520
  15 H :    0.107090
  16 H :    0.100715
  17 H :    0.093823

  Mayer bond orders larger than 0.100000
B(  0-O ,  1-H ) :   0.8421 B(  0-O ,  2-C ) :   0.9261 B(  2-C ,  3-H ) :   0.9376
B(  2-C ,  4-H ) :   0.9395 B(  2-C ,  5-H ) :   0.9383 B(  6-O ,  7-H ) :   0.8381
B(  6-O ,  8-C ) :   0.9181 B(  8-C ,  9-H ) :   0.9386 B(  8-C , 10-H ) :   0.9385
B(  8-C , 11-H ) :   0.9361 B( 12-O , 13-H ) :   0.8454 B( 12-O , 14-C ) :   0.9155
B( 14-C , 15-H ) :   0.9366 B( 14-C , 16-H ) :   0.9335 B( 14-C , 17-H ) :   0.9414

MP2 TOTAL ENERGY:     -346.522472978 Eh
FINAL SINGLE POINT ENERGY      -346.522472977896

DIPOLE MOMENT
-------------
                                X             Y             Z
Electronic contribution:     -1.52479       1.61625       0.68751
Nuclear contribution   :      1.09460      -2.33006      -0.40945
                        -----------------------------------------
Total Dipole Moment    :     -0.43019      -0.71380       0.27807
                        -----------------------------------------
Magnitude (a.u.)       :      0.87858
Magnitude (Debye)      :      2.23317

Rotational constants in cm-1:     0.051647     0.012560     0.010342
Rotational constants in MHz :  1548.333937   376.527676   310.031801

                             ****ORCA TERMINATED NORMALLY****
TOTAL RUN TIME: 0 days 0 hours 0 minutes 48 seconds 747 msec
