                         Program Version 4.2.0 -  RELEASE  -
|  1> # 12meoh.boyd.etal.mol0,2,8
|  2> ! MP2 def2-TZVP EnGrad TightSCF
|  3>
|  4> %pal
|  5>     nprocs 6
|  6> end
|  7>
|  8> %maxcore 8000
|  9>
| 10> %scf
| 11>     ConvForced true
| 12> end
| 13>
| 14> *xyz 0 1
| 15> O  -1.776108874  -2.741384797  -1.019308298
| 16> H  -2.520094035  -2.452295987  -0.420778302
| 17> C  -2.174025166  -3.952700964  -1.647004581
| 18> H  -1.359803895  -4.272673416  -2.304149236
| 19> H  -3.075973971  -3.808692420  -2.256751112
| 20> H  -2.370225393  -4.752784761  -0.918966137
| 21> O  -3.839777402   2.233595098   0.660436763
| 22> H  -2.958345897   1.907036203   0.973588449
| 23> C  -3.600368059   3.168790682  -0.390480452
| 24> H  -4.551709193   3.344148967  -0.901254863
| 25> H  -2.868237594   2.789240199  -1.113617525
| 26> H  -3.243594915   4.128998607   0.009549480
| 27> O   3.570084754   2.361662577  -0.202416728
| 28> H   3.393280933   1.755669977   0.560634073
| 29> C   4.368082883   1.644741793  -1.143112807
| 30> H   4.552851717   2.311801738  -1.989632421
| 31> H   3.862427494   0.740851663  -1.508095690
| 32> H   5.333949674   1.357289092  -0.706288100
| 33> *
| 34>
| 35>                          ****END OF INPUT****

CARTESIAN COORDINATES (ANGSTROEM)
---------------------------------
  O     -1.776109   -2.741385   -1.019308
  H     -2.520094   -2.452296   -0.420778
  C     -2.174025   -3.952701   -1.647005
  H     -1.359804   -4.272673   -2.304149
  H     -3.075974   -3.808692   -2.256751
  H     -2.370225   -4.752785   -0.918966
  O     -3.839777    2.233595    0.660437
  H     -2.958346    1.907036    0.973588
  C     -3.600368    3.168791   -0.390480
  H     -4.551709    3.344149   -0.901255
  H     -2.868238    2.789240   -1.113618
  H     -3.243595    4.128999    0.009549
  O      3.570085    2.361663   -0.202417
  H      3.393281    1.755670    0.560634
  C      4.368083    1.644742   -1.143113
  H      4.552852    2.311802   -1.989632
  H      3.862427    0.740852   -1.508096
  H      5.333950    1.357289   -0.706288

 Total Charge           Charge          ....    0
 Multiplicity           Mult            ....    1
 Number of Electrons    NEL             ....   54
 Basis Dimension        Dim             ....  258

ORBITAL ENERGIES
----------------

  NO   OCC          E(Eh)            E(eV)
   0   2.0000     -20.559445      -559.4509
   1   2.0000     -20.556907      -559.3819
   2   2.0000     -20.555502      -559.3436
   3   2.0000     -11.272601      -306.7431
   4   2.0000     -11.271152      -306.7036
   5   2.0000     -11.269389      -306.6557
   6   2.0000      -1.348575       -36.6966
   7   2.0000      -1.346380       -36.6369
   8   2.0000      -1.344920       -36.5971
   9   2.0000      -0.920250       -25.0413
  10   2.0000      -0.919327       -25.0161
  11   2.0000      -0.917440       -24.9648
  12   2.0000      -0.682900       -18.5827
  13   2.0000      -0.681433       -18.5427
  14   2.0000      -0.679828       -18.4990
  15   2.0000      -0.618445       -16.8288
  16   2.0000      -0.616472       -16.7751
  17   2.0000      -0.614592       -16.7239
  18   2.0000      -0.592664       -16.1272
  19   2.0000      -0.589272       -16.0349
  20   2.0000      -0.588241       -16.0068
  21   2.0000      -0.501661       -13.6509
  22   2.0000      -0.501188       -13.6380
  23   2.0000      -0.499768       -13.5994
  24   2.0000      -0.450295       -12.2532
  25   2.0000      -0.449363       -12.2278
  26   2.0000      -0.447469       -12.1762
  27   0.0000       0.123642         3.3645
  28   0.0000       0.135837         3.6963
  29   0.0000       0.145382         3.9560
  30   0.0000       0.173603         4.7240
  31   0.0000       0.176956         4.8152

MULLIKEN ATOMIC CHARGES
-----------------------
   0 O :   -0.499384
   1 H :    0.323576
   2 C :   -0.172889
   3 H :    0.128209
   4 H :    0.111084
   5 H :    0.109325
   6 O :   -0.500432
   7 H :    0.321826
   8 C :   -0.175815
   9 H :    0.127405
  10 H :    0.116074
  11 H :    0.111023
  12 O :   -0.497579
  13 H :    0.320612
  14 C :   -0.174968
  15 H :    0.129154
  16 H :    0.113200
  17 H :    0.109581
Sum of atomic charges:   -0.0000000

LOEWDIN ATOMIC CHARGES
----------------------
   0 O :   -0.110410
   1 H :    0.193172
   2 C :   -0.384003
   3 H :    0.110076
   4 H :    0.095791
   5 H :    0.095322
   6 O :   -0.112868
   7 H :    0.188107
   8 C :   -0.378037
   9 H :    0.109229
  10 H :    0.097334
  11 H :    0.096288
  12 O :   -0.110807
  13 H :    0.187516
  14 C :   -0.378737
  15 H :    0.110312
  16 H :    0.096253
  17 H :    0.095463

  Mayer bond orders larger than 0.100000
B(  0-O ,  1-H ) :   0.8407 B(  0-O ,  2-C ) :   0.9259 B(  2-C ,  3-H ) :   0.9375
B(  2-C ,  4-H ) :   0.9399 B(  2-C ,  5-H ) :   0.9383 B(  6-O ,  7-H ) :   0.8438
B(  6-O ,  8-C ) :   0.9235 B(  8-C ,  9-H ) :   0.9379 B(  8-C , 10-H ) :   0.9411
B(  8-C , 11-H ) :   0.9379 B( 12-O , 13-H ) :   0.8441 B( 12-O , 14-C ) :   0.9239
B( 14-C , 15-H ) :   0.9378 B( 14-C , 16-H ) :   0.9381 B( 14-C , 17-H ) :   0.9394

MP2 TOTAL ENERGY:     -346.520823663 Eh
FINAL SINGLE POINT ENERGY      -346.520823662524

DIPOLE MOMENT
-------------
                                X             Y             Z
Electronic contribution:     -0.80006       1.37193       3.06950
Nuclear contribution   :      1.04580      -2.17693      -3.12911
                        -----------------------------------------
Total Dipole Moment    :      0.24574      -0.80500      -0.05961
                        -----------------------------------------
Magnitude (a.u.)       :      0.84378
Magnitude (Debye)      :      2.14471

Rotational constants in cm-1:     0.023736     0.014698     0.009321
Rotational constants in MHz :   711.587238   440.646574   279.434848

                             ****ORCA TERMINATED NORMALLY****
TOTAL RUN TIME: 0 days 0 hours 0 minutes 40 seconds 59 msec
