                         Program Version 4.2.0 -  RELEASE  -
|  1> # 12h2o.su.etal.mol0,2,4,6,7,9
|  2> ! MP2 def2-TZVP EnGrad TightSCF
|  3>
|  4> %pal
|  5>     nprocs 6
|  6> end
|  7>
|  8> %maxcore 8000
|  9>
| 10> %scf
| 11>     ConvForced true
| 12> end
| 13>
| 14> *xyz 0 1
| 15> O   1.794470000   0.923410000   2.768350000
| 16> H   2.338250000   1.359750000   3.430940000
| 17> H   0.879480000   1.303000000   2.865760000
| 18> O   0.923410000  -1.794470000  -2.768350000
| 19> H   1.359750000  -2.338250000  -3.430940000
| 20> H   1.303000000  -0.879480000  -2.865760000
| 21> O  -0.885520000   1.737840000   0.052730000
| 22> H  -1.032320000   2.090180000  -0.841890000
| 23> H  -1.284090000   0.839590000   0.017130000
| 24> O   1.737840000   0.885520000  -0.052730000
| 25> H   2.090180000   1.032320000   0.841890000
| 26> H   0.839590000   1.284090000  -0.017130000
| 27> O  -1.737840000  -0.885520000  -0.052730000
| 28> H  -2.090180000  -1.032320000   0.841890000
| 29> H  -0.839590000  -1.284090000  -0.017130000
| 30> O   0.741530000  -1.752130000   2.896280000
| 31> H   0.920500000  -2.036450000   1.984040000
| 32> H   1.242140000  -0.921210000   2.984230000
| 33> *
| 34>
| 35>                          ****END OF INPUT****

CARTESIAN COORDINATES (ANGSTROEM)
---------------------------------
  O      1.794470    0.923410    2.768350
  H      2.338250    1.359750    3.430940
  H      0.879480    1.303000    2.865760
  O      0.923410   -1.794470   -2.768350
  H      1.359750   -2.338250   -3.430940
  H      1.303000   -0.879480   -2.865760
  O     -0.885520    1.737840    0.052730
  H     -1.032320    2.090180   -0.841890
  H     -1.284090    0.839590    0.017130
  O      1.737840    0.885520   -0.052730
  H      2.090180    1.032320    0.841890
  H      0.839590    1.284090   -0.017130
  O     -1.737840   -0.885520   -0.052730
  H     -2.090180   -1.032320    0.841890
  H     -0.839590   -1.284090   -0.017130
  O      0.741530   -1.752130    2.896280
  H      0.920500   -2.036450    1.984040
  H      1.242140   -0.921210    2.984230

 Total Charge           Charge          ....    0
 Multiplicity           Mult            ....    1
 Number of Electrons    NEL             ....   60
 Basis Dimension        Dim             ....  258

ORBITAL ENERGIES
----------------

  NO   OCC          E(Eh)            E(eV)
   0   2.0000     -20.606829      -560.7403
   1   2.0000     -20.587548      -560.2157
   2   2.0000     -20.559574      -559.4545
   3   2.0000     -20.555394      -559.3407
   4   2.0000     -20.542909      -559.0010
   5   2.0000     -20.508749      -558.0714
   6   2.0000      -1.387048       -37.7435
   7   2.0000      -1.369632       -37.2696
   8   2.0000      -1.343825       -36.5673
   9   2.0000      -1.330740       -36.2113
  10   2.0000      -1.325036       -36.0560
  11   2.0000      -1.292861       -35.1805
  12   2.0000      -0.752700       -20.4820
  13   2.0000      -0.725249       -19.7350
  14   2.0000      -0.713676       -19.4201
  15   2.0000      -0.698881       -19.0175
  16   2.0000      -0.695054       -18.9134
  17   2.0000      -0.677017       -18.4226
  18   2.0000      -0.626032       -17.0352
  19   2.0000      -0.612764       -16.6742
  20   2.0000      -0.589033       -16.0284
  21   2.0000      -0.574274       -15.6268
  22   2.0000      -0.567900       -15.4533
  23   2.0000      -0.551033       -14.9944
  24   2.0000      -0.529896       -14.4192
  25   2.0000      -0.522140       -14.2082
  26   2.0000      -0.498892       -13.5755
  27   2.0000      -0.494844       -13.4654
  28   2.0000      -0.490198       -13.3390
  29   2.0000      -0.459650       -12.5077
  30   0.0000       0.094619         2.5747
  31   0.0000       0.121804         3.3144
  32   0.0000       0.141228         3.8430
  33   0.0000       0.154239         4.1971
  34   0.0000       0.176722         4.8089

MULLIKEN ATOMIC CHARGES
-----------------------
   0 O :   -0.713432
   1 H :    0.361114
   2 H :    0.373822
   3 O :   -0.691843
   4 H :    0.336888
   5 H :    0.354813
   6 O :   -0.719014
   7 H :    0.350161
   8 H :    0.368512
   9 O :   -0.738344
  10 H :    0.354713
  11 H :    0.339357
  12 O :   -0.688154
  13 H :    0.357432
  14 H :    0.368666
  15 O :   -0.706409
  16 H :    0.331357
  17 H :    0.360361
Sum of atomic charges:   -0.0000000

LOEWDIN ATOMIC CHARGES
----------------------
   0 O :   -0.286888
   1 H :    0.166432
   2 H :    0.192756
   3 O :   -0.342320
   4 H :    0.157190
   5 H :    0.184878
   6 O :   -0.316126
   7 H :    0.167735
   8 H :    0.145245
   9 O :   -0.372490
  10 H :    0.141192
  11 H :    0.133989
  12 O :   -0.286462
  13 H :    0.172608
  14 H :    0.181365
  15 O :   -0.345648
  16 H :    0.158922
  17 H :    0.147622

  Mayer bond orders larger than 0.100000
B(  0-O ,  1-H ) :   0.8334 B(  0-O ,  2-H ) :   0.8180 B(  3-O ,  4-H ) :   0.8539
B(  3-O ,  5-H ) :   0.8358 B(  6-O ,  7-H ) :   0.8429 B(  6-O ,  8-H ) :   0.7750
B(  9-O , 10-H ) :   0.8344 B(  9-O , 11-H ) :   0.7992 B( 12-O , 13-H ) :   0.8361
B( 12-O , 14-H ) :   0.8210 B( 15-O , 16-H ) :   0.8544 B( 15-O , 17-H ) :   0.8191

MP2 TOTAL ENERGY:     -457.915695429 Eh
FINAL SINGLE POINT ENERGY      -457.915695428700

DIPOLE MOMENT
-------------
                                X             Y             Z
Electronic contribution:     -0.28206      -0.17575       0.12471
Nuclear contribution   :      0.48188       0.98870       0.08817
                        -----------------------------------------
Total Dipole Moment    :      0.19982       0.81295       0.21288
                        -----------------------------------------
Magnitude (a.u.)       :      0.86379
Magnitude (Debye)      :      2.19558

Rotational constants in cm-1:     0.045619     0.027494     0.026475
Rotational constants in MHz :  1367.626526   824.236864   793.695847

                             ****ORCA TERMINATED NORMALLY****
TOTAL RUN TIME: 0 days 0 hours 1 minutes 1 seconds 443 msec
