                         Program Version 4.2.0 -  RELEASE  -
|  1> # 12h2o.su.etal.mol0,1,5,6,8,9,11
|  2> ! MP2 def2-TZVP EnGrad TightSCF
|  3>
|  4> %pal
|  5>     nprocs 6
|  6> end
|  7>
|  8> %maxcore 8000
|  9>
| 10> %scf
| 11>     ConvForced true
| 12> end
| 13>
| 14> *xyz 0 1
| 15> O   1.794470000   0.923410000   2.768350000
| 16> H   2.338250000   1.359750000   3.430940000
| 17> H   0.879480000   1.303000000   2.865760000
| 18> O  -1.794470000  -0.923410000   2.768350000
| 19> H  -2.338250000  -1.359750000   3.430940000
| 20> H  -0.879480000  -1.303000000   2.865760000
| 21> O   0.885520000  -1.737840000   0.052730000
| 22> H   1.284090000  -0.839590000   0.017130000
| 23> H   1.032320000  -2.090180000  -0.841890000
| 24> O   1.737840000   0.885520000  -0.052730000
| 25> H   2.090180000   1.032320000   0.841890000
| 26> H   0.839590000   1.284090000  -0.017130000
| 27> O   1.752130000   0.741530000  -2.896280000
| 28> H   2.036450000   0.920500000  -1.984040000
| 29> H   0.921210000   1.242140000  -2.984230000
| 30> O   0.741530000  -1.752130000   2.896280000
| 31> H   0.920500000  -2.036450000   1.984040000
| 32> H   1.242140000  -0.921210000   2.984230000
| 33> O  -0.741530000   1.752130000   2.896280000
| 34> H  -0.920500000   2.036450000   1.984040000
| 35> H  -1.242140000   0.921210000   2.984230000
| 36> *
| 37>
| 38>                          ****END OF INPUT****

CARTESIAN COORDINATES (ANGSTROEM)
---------------------------------
  O      1.794470    0.923410    2.768350
  H      2.338250    1.359750    3.430940
  H      0.879480    1.303000    2.865760
  O     -1.794470   -0.923410    2.768350
  H     -2.338250   -1.359750    3.430940
  H     -0.879480   -1.303000    2.865760
  O      0.885520   -1.737840    0.052730
  H      1.284090   -0.839590    0.017130
  H      1.032320   -2.090180   -0.841890
  O      1.737840    0.885520   -0.052730
  H      2.090180    1.032320    0.841890
  H      0.839590    1.284090   -0.017130
  O      1.752130    0.741530   -2.896280
  H      2.036450    0.920500   -1.984040
  H      0.921210    1.242140   -2.984230
  O      0.741530   -1.752130    2.896280
  H      0.920500   -2.036450    1.984040
  H      1.242140   -0.921210    2.984230
  O     -0.741530    1.752130    2.896280
  H     -0.920500    2.036450    1.984040
  H     -1.242140    0.921210    2.984230

 Total Charge           Charge          ....    0
 Multiplicity           Mult            ....    1
 Number of Electrons    NEL             ....   70
 Basis Dimension        Dim             ....  301

ORBITAL ENERGIES
----------------

  NO   OCC          E(Eh)            E(eV)
   0   2.0000     -20.601483      -560.5948
   1   2.0000     -20.589728      -560.2750
   2   2.0000     -20.584950      -560.1450
   3   2.0000     -20.549376      -559.1769
   4   2.0000     -20.546100      -559.0878
   5   2.0000     -20.545708      -559.0771
   6   2.0000     -20.543391      -559.0141
   7   2.0000      -1.391504       -37.8648
   8   2.0000      -1.383153       -37.6375
   9   2.0000      -1.364272       -37.1237
  10   2.0000      -1.344270       -36.5794
  11   2.0000      -1.331149       -36.2224
  12   2.0000      -1.327540       -36.1242
  13   2.0000      -1.320265       -35.9262
  14   2.0000      -0.753429       -20.5018
  15   2.0000      -0.747760       -20.3476
  16   2.0000      -0.739933       -20.1346
  17   2.0000      -0.710837       -19.3429
  18   2.0000      -0.706398       -19.2221
  19   2.0000      -0.701872       -19.0989
  20   2.0000      -0.696880       -18.9631
  21   2.0000      -0.648413       -17.6442
  22   2.0000      -0.624370       -16.9900
  23   2.0000      -0.603406       -16.4195
  24   2.0000      -0.600537       -16.3414
  25   2.0000      -0.580947       -15.8084
  26   2.0000      -0.565036       -15.3754
  27   2.0000      -0.550998       -14.9934
  28   2.0000      -0.534626       -14.5479
  29   2.0000      -0.531634       -14.4665
  30   2.0000      -0.529525       -14.4091
  31   2.0000      -0.499876       -13.6023
  32   2.0000      -0.494522       -13.4566
  33   2.0000      -0.491851       -13.3839
  34   2.0000      -0.490004       -13.3337
  35   0.0000       0.082215         2.2372
  36   0.0000       0.132208         3.5976
  37   0.0000       0.141238         3.8433
  38   0.0000       0.153939         4.1889
  39   0.0000       0.172638         4.6977

MULLIKEN ATOMIC CHARGES
-----------------------
   0 O :   -0.760523
   1 H :    0.357695
   2 H :    0.382530
   3 O :   -0.746737
   4 H :    0.339775
   5 H :    0.385633
   6 O :   -0.731805
   7 H :    0.359554
   8 H :    0.348119
   9 O :   -0.717068
  10 H :    0.393355
  11 H :    0.337604
  12 O :   -0.692362
  13 H :    0.370131
  14 H :    0.321073
  15 O :   -0.724702
  16 H :    0.389930
  17 H :    0.362122
  18 O :   -0.702672
  19 H :    0.342427
  20 H :    0.385922
Sum of atomic charges:   -0.0000000

LOEWDIN ATOMIC CHARGES
----------------------
   0 O :   -0.315544
   1 H :    0.162604
   2 H :    0.145563
   3 O :   -0.341972
   4 H :    0.155111
   5 H :    0.146123
   6 O :   -0.340737
   7 H :    0.143117
   8 H :    0.167844
   9 O :   -0.281384
  10 H :    0.157696
  11 H :    0.169327
  12 O :   -0.337559
  13 H :    0.150221
  14 H :    0.158882
  15 O :   -0.288134
  16 H :    0.159300
  17 H :    0.146554
  18 O :   -0.279262
  19 H :    0.164597
  20 H :    0.157654

  Mayer bond orders larger than 0.100000
B(  0-O ,  1-H ) :   0.8368 B(  0-O ,  2-H ) :   0.7322 B(  2-H , 18-O ) :   0.1156
B(  3-O ,  4-H ) :   0.8489 B(  3-O ,  5-H ) :   0.7388 B(  5-H , 15-O ) :   0.1162
B(  6-O ,  7-H ) :   0.7861 B(  6-O ,  8-H ) :   0.8433 B(  9-O , 10-H ) :   0.7827
B(  9-O , 11-H ) :   0.8403 B( 12-O , 13-H ) :   0.8216 B( 12-O , 14-H ) :   0.8617
B( 15-O , 16-H ) :   0.7960 B( 15-O , 17-H ) :   0.8090 B( 18-O , 19-H ) :   0.8467
B( 18-O , 20-H ) :   0.7674

MP2 TOTAL ENERGY:     -534.268320681 Eh
FINAL SINGLE POINT ENERGY      -534.268320681173

DIPOLE MOMENT
-------------
                                X             Y             Z
Electronic contribution:      0.17357      -0.13718       0.11573
Nuclear contribution   :     -0.45542       1.47399       0.57908
                        -----------------------------------------
Total Dipole Moment    :     -0.28185       1.33682       0.69481
                        -----------------------------------------
Magnitude (a.u.)       :      1.53274
Magnitude (Debye)      :      3.89591

Rotational constants in cm-1:     0.048488     0.022223     0.019803
Rotational constants in MHz :  1453.641764   666.216736   593.692840

                             ****ORCA TERMINATED NORMALLY****
TOTAL RUN TIME: 0 days 0 hours 1 minutes 51 seconds 777 msec
