                         Program Version 4.2.0 -  RELEASE  -
|  1> # 12mecn.remya.etal.2.mol4,6,10
|  2> ! MP2 def2-TZVP EnGrad TightSCF
|  3>
|  4> %pal
|  5>     nprocs 6
|  6> end
|  7>
|  8> %maxcore 8000
|  9>
| 10> %scf
| 11>     ConvForced true
| 12> end
| 13>
| 14> *xyz 0 1
| 15> C  -1.509690000  -0.693960000  -1.610140000
| 16> H  -1.327010000  -1.692700000  -2.017370000
| 17> H  -0.742170000  -0.000650000  -1.964400000
| 18> H  -2.491920000  -0.334310000  -1.929350000
| 19> C  -1.473570000  -0.748120000  -0.167200000
| 20> N  -1.447490000  -0.793720000   0.998938000
| 21> C   5.300864000  -2.920090000   1.401103000
| 22> H   5.986071000  -2.139770000   1.737487000
| 23> H   5.636642000  -3.888750000   1.778233000
| 24> H   4.307359000  -2.697240000   1.799307000
| 25> C   5.234791000  -2.933140000  -0.043290000
| 26> N   5.170868000  -2.941760000  -1.207750000
| 27> C   4.602033000   0.321019000  -1.784800000
| 28> H   4.827650000  -0.662160000  -2.207910000
| 29> H   5.320558000   1.057980000  -2.148500000
| 30> H   3.601982000   0.643751000  -2.087520000
| 31> C   4.654967000   0.244048000  -0.343060000
| 32> N   4.691648000   0.166590000   0.820757000
| 33> *
| 34>
| 35>                          ****END OF INPUT****

CARTESIAN COORDINATES (ANGSTROEM)
---------------------------------
  C     -1.509690   -0.693960   -1.610140
  H     -1.327010   -1.692700   -2.017370
  H     -0.742170   -0.000650   -1.964400
  H     -2.491920   -0.334310   -1.929350
  C     -1.473570   -0.748120   -0.167200
  N     -1.447490   -0.793720    0.998938
  C      5.300864   -2.920090    1.401103
  H      5.986071   -2.139770    1.737487
  H      5.636642   -3.888750    1.778233
  H      4.307359   -2.697240    1.799307
  C      5.234791   -2.933140   -0.043290
  N      5.170868   -2.941760   -1.207750
  C      4.602033    0.321019   -1.784800
  H      4.827650   -0.662160   -2.207910
  H      5.320558    1.057980   -2.148500
  H      3.601982    0.643751   -2.087520
  C      4.654967    0.244048   -0.343060
  N      4.691648    0.166590    0.820757

 Total Charge           Charge          ....    0
 Multiplicity           Mult            ....    1
 Number of Electrons    NEL             ....   66
 Basis Dimension        Dim             ....  333

ORBITAL ENERGIES
----------------

  NO   OCC          E(Eh)            E(eV)
   0   2.0000     -15.573268      -423.7702
   1   2.0000     -15.571528      -423.7228
   2   2.0000     -15.570026      -423.6820
   3   2.0000     -11.286069      -307.1095
   4   2.0000     -11.282687      -307.0175
   5   2.0000     -11.282629      -307.0159
   6   2.0000     -11.280054      -306.9459
   7   2.0000     -11.274331      -306.7901
   8   2.0000     -11.270423      -306.6838
   9   2.0000      -1.218174       -33.1482
  10   2.0000      -1.214214       -33.0404
  11   2.0000      -1.213414       -33.0187
  12   2.0000      -1.045029       -28.4367
  13   2.0000      -1.037841       -28.2411
  14   2.0000      -1.032720       -28.1017
  15   2.0000      -0.699817       -19.0430
  16   2.0000      -0.695665       -18.9300
  17   2.0000      -0.691069       -18.8049
  18   2.0000      -0.634144       -17.2559
  19   2.0000      -0.632654       -17.2154
  20   2.0000      -0.632453       -17.2099
  21   2.0000      -0.623475       -16.9656
  22   2.0000      -0.617200       -16.7949
  23   2.0000      -0.616174       -16.7669
  24   2.0000      -0.558977       -15.2105
  25   2.0000      -0.555858       -15.1257
  26   2.0000      -0.555629       -15.1194
  27   2.0000      -0.463200       -12.6043
  28   2.0000      -0.458410       -12.4740
  29   2.0000      -0.457501       -12.4492
  30   2.0000      -0.457203       -12.4411
  31   2.0000      -0.456971       -12.4348
  32   2.0000      -0.452893       -12.3238
  33   0.0000       0.104878         2.8539
  34   0.0000       0.131163         3.5691
  35   0.0000       0.143406         3.9023
  36   0.0000       0.164836         4.4854
  37   0.0000       0.171045         4.6544

MULLIKEN ATOMIC CHARGES
-----------------------
   0 C :   -0.276857
   1 H :    0.173948
   2 H :    0.167597
   3 H :    0.172334
   4 C :   -0.145735
   5 N :   -0.091288
   6 C :   -0.262780
   7 H :    0.182717
   8 H :    0.171118
   9 H :    0.178137
  10 C :   -0.117533
  11 N :   -0.151024
  12 C :   -0.286516
  13 H :    0.205806
  14 H :    0.167481
  15 H :    0.159778
  16 C :   -0.110856
  17 N :   -0.136329
Sum of atomic charges:   -0.0000000

LOEWDIN ATOMIC CHARGES
----------------------
   0 C :   -0.283812
   1 H :    0.153145
   2 H :    0.151421
   3 H :    0.153018
   4 C :   -0.220623
   5 N :    0.046850
   6 C :   -0.284185
   7 H :    0.155911
   8 H :    0.148632
   9 H :    0.158292
  10 C :   -0.208527
  11 N :    0.026472
  12 C :   -0.282912
  13 H :    0.156963
  14 H :    0.150565
  15 H :    0.150538
  16 C :   -0.210064
  17 N :    0.038315

  Mayer bond orders larger than 0.100000
B(  0-C ,  1-H ) :   0.9160 B(  0-C ,  2-H ) :   0.9176 B(  0-C ,  3-H ) :   0.9168
B(  0-C ,  4-C ) :   0.9007 B(  4-C ,  5-N ) :   2.8356 B(  6-C ,  7-H ) :   0.9107
B(  6-C ,  8-H ) :   0.9096 B(  6-C ,  9-H ) :   0.9124 B(  6-C , 10-C ) :   0.9131
B( 10-C , 11-N ) :   2.7765 B( 12-C , 13-H ) :   0.9018 B( 12-C , 14-H ) :   0.9169
B( 12-C , 15-H ) :   0.9172 B( 12-C , 16-C ) :   0.8991 B( 16-C , 17-N ) :   2.7856

MP2 TOTAL ENERGY:     -397.458871615 Eh
FINAL SINGLE POINT ENERGY      -397.458871615233

DIPOLE MOMENT
-------------
                                X             Y             Z
Electronic contribution:      0.07705      -0.36538       3.14098
Nuclear contribution   :     -0.09237       0.52645      -4.60098
                        -----------------------------------------
Total Dipole Moment    :     -0.01532       0.16107      -1.46001
                        -----------------------------------------
Magnitude (a.u.)       :      1.46894
Magnitude (Debye)      :      3.73376

Rotational constants in cm-1:     0.046149     0.012942     0.012114
Rotational constants in MHz :  1383.511928   387.989635   363.170641

                             ****ORCA TERMINATED NORMALLY****
TOTAL RUN TIME: 0 days 0 hours 3 minutes 2 seconds 349 msec
