                         Program Version 4.2.0 -  RELEASE  -
|  1> # 12h2o.su.etal.mol4,5,9,10
|  2> ! MP2 def2-TZVP EnGrad TightSCF
|  3>
|  4> %pal
|  5>     nprocs 6
|  6> end
|  7>
|  8> %maxcore 8000
|  9>
| 10> %scf
| 11>     ConvForced true
| 12> end
| 13>
| 14> *xyz 0 1
| 15> O  -0.885520000   1.737840000   0.052730000
| 16> H  -1.032320000   2.090180000  -0.841890000
| 17> H  -1.284090000   0.839590000   0.017130000
| 18> O   0.885520000  -1.737840000   0.052730000
| 19> H   1.284090000  -0.839590000   0.017130000
| 20> H   1.032320000  -2.090180000  -0.841890000
| 21> O   0.741530000  -1.752130000   2.896280000
| 22> H   0.920500000  -2.036450000   1.984040000
| 23> H   1.242140000  -0.921210000   2.984230000
| 24> O  -0.923410000   1.794470000  -2.768350000
| 25> H  -1.359750000   2.338250000  -3.430940000
| 26> H  -1.303000000   0.879480000  -2.865760000
| 27> *
| 28>
| 29>                          ****END OF INPUT****

CARTESIAN COORDINATES (ANGSTROEM)
---------------------------------
  O     -0.885520    1.737840    0.052730
  H     -1.032320    2.090180   -0.841890
  H     -1.284090    0.839590    0.017130
  O      0.885520   -1.737840    0.052730
  H      1.284090   -0.839590    0.017130
  H      1.032320   -2.090180   -0.841890
  O      0.741530   -1.752130    2.896280
  H      0.920500   -2.036450    1.984040
  H      1.242140   -0.921210    2.984230
  O     -0.923410    1.794470   -2.768350
  H     -1.359750    2.338250   -3.430940
  H     -1.303000    0.879480   -2.865760

 Total Charge           Charge          ....    0
 Multiplicity           Mult            ....    1
 Number of Electrons    NEL             ....   40
 Basis Dimension        Dim             ....  172

ORBITAL ENERGIES
----------------

  NO   OCC          E(Eh)            E(eV)
   0   2.0000     -20.599748      -560.5477
   1   2.0000     -20.588797      -560.2497
   2   2.0000     -20.538102      -558.8702
   3   2.0000     -20.525951      -558.5395
   4   2.0000      -1.377579       -37.4858
   5   2.0000      -1.367141       -37.2018
   6   2.0000      -1.316979       -35.8368
   7   2.0000      -1.307822       -35.5876
   8   2.0000      -0.744583       -20.2611
   9   2.0000      -0.729419       -19.8485
  10   2.0000      -0.686673       -18.6853
  11   2.0000      -0.678006       -18.4495
  12   2.0000      -0.614180       -16.7127
  13   2.0000      -0.607241       -16.5239
  14   2.0000      -0.566498       -15.4152
  15   2.0000      -0.546935       -14.8829
  16   2.0000      -0.532069       -14.4783
  17   2.0000      -0.528865       -14.3912
  18   2.0000      -0.483486       -13.1563
  19   2.0000      -0.472316       -12.8524
  20   0.0000       0.086881         2.3641
  21   0.0000       0.118698         3.2299
  22   0.0000       0.161061         4.3827
  23   0.0000       0.169177         4.6036
  24   0.0000       0.196127         5.3369

MULLIKEN ATOMIC CHARGES
-----------------------
   0 O :   -0.697206
   1 H :    0.365193
   2 H :    0.324126
   3 O :   -0.696325
   4 H :    0.353678
   5 H :    0.346221
   6 O :   -0.694017
   7 H :    0.366741
   8 H :    0.321890
   9 O :   -0.693235
  10 H :    0.353912
  11 H :    0.349023
Sum of atomic charges:    0.0000000

LOEWDIN ATOMIC CHARGES
----------------------
   0 O :   -0.346607
   1 H :    0.148438
   2 H :    0.162713
   3 O :   -0.318645
   4 H :    0.177121
   5 H :    0.169029
   6 O :   -0.339623
   7 H :    0.151869
   8 H :    0.159216
   9 O :   -0.310683
  10 H :    0.164077
  11 H :    0.183095

  Mayer bond orders larger than 0.100000
B(  0-O ,  1-H ) :   0.8211 B(  0-O ,  2-H ) :   0.8553 B(  3-O ,  4-H ) :   0.8323
B(  3-O ,  5-H ) :   0.8442 B(  6-O ,  7-H ) :   0.8244 B(  6-O ,  8-H ) :   0.8617
B(  9-O , 10-H ) :   0.8407 B(  9-O , 11-H ) :   0.8376

MP2 TOTAL ENERGY:     -305.264234189 Eh
FINAL SINGLE POINT ENERGY      -305.264234189214

DIPOLE MOMENT
-------------
                                X             Y             Z
Electronic contribution:      0.00461       0.02309       0.11546
Nuclear contribution   :     -0.11349       0.14599      -2.86726
                        -----------------------------------------
Total Dipole Moment    :     -0.10888       0.16908      -2.75180
                        -----------------------------------------
Magnitude (a.u.)       :      2.75914
Magnitude (Debye)      :      7.01318

Rotational constants in cm-1:     0.195322     0.034743     0.029752
Rotational constants in MHz :  5855.605736  1041.575939   891.942873

                             ****ORCA TERMINATED NORMALLY****
TOTAL RUN TIME: 0 days 0 hours 0 minutes 16 seconds 62 msec
