                         Program Version 4.2.0 -  RELEASE  -
|  1> # 12h2o.su.etal.mol0,3,4,9
|  2> ! MP2 def2-TZVP EnGrad TightSCF
|  3>
|  4> %pal
|  5>     nprocs 6
|  6> end
|  7>
|  8> %maxcore 8000
|  9>
| 10> %scf
| 11>     ConvForced true
| 12> end
| 13>
| 14> *xyz 0 1
| 15> O   1.794470000   0.923410000   2.768350000
| 16> H   2.338250000   1.359750000   3.430940000
| 17> H   0.879480000   1.303000000   2.865760000
| 18> O  -1.752130000  -0.741530000  -2.896280000
| 19> H  -2.036450000  -0.920500000  -1.984040000
| 20> H  -0.921210000  -1.242140000  -2.984230000
| 21> O  -0.885520000   1.737840000   0.052730000
| 22> H  -1.032320000   2.090180000  -0.841890000
| 23> H  -1.284090000   0.839590000   0.017130000
| 24> O   0.741530000  -1.752130000   2.896280000
| 25> H   0.920500000  -2.036450000   1.984040000
| 26> H   1.242140000  -0.921210000   2.984230000
| 27> *
| 28>
| 29>                          ****END OF INPUT****

CARTESIAN COORDINATES (ANGSTROEM)
---------------------------------
  O      1.794470    0.923410    2.768350
  H      2.338250    1.359750    3.430940
  H      0.879480    1.303000    2.865760
  O     -1.752130   -0.741530   -2.896280
  H     -2.036450   -0.920500   -1.984040
  H     -0.921210   -1.242140   -2.984230
  O     -0.885520    1.737840    0.052730
  H     -1.032320    2.090180   -0.841890
  H     -1.284090    0.839590    0.017130
  O      0.741530   -1.752130    2.896280
  H      0.920500   -2.036450    1.984040
  H      1.242140   -0.921210    2.984230

 Total Charge           Charge          ....    0
 Multiplicity           Mult            ....    1
 Number of Electrons    NEL             ....   40
 Basis Dimension        Dim             ....  172

ORBITAL ENERGIES
----------------

  NO   OCC          E(Eh)            E(eV)
   0   2.0000     -20.582328      -560.0736
   1   2.0000     -20.578082      -559.9581
   2   2.0000     -20.569690      -559.7297
   3   2.0000     -20.533300      -558.7395
   4   2.0000      -1.360092       -37.0100
   5   2.0000      -1.357100       -36.9286
   6   2.0000      -1.345506       -36.6131
   7   2.0000      -1.315543       -35.7977
   8   2.0000      -0.727231       -19.7890
   9   2.0000      -0.719994       -19.5920
  10   2.0000      -0.707731       -19.2583
  11   2.0000      -0.684319       -18.6213
  12   2.0000      -0.600605       -16.3433
  13   2.0000      -0.594355       -16.1732
  14   2.0000      -0.585629       -15.9358
  15   2.0000      -0.556277       -15.1371
  16   2.0000      -0.521731       -14.1970
  17   2.0000      -0.520358       -14.1596
  18   2.0000      -0.512254       -13.9391
  19   2.0000      -0.480973       -13.0879
  20   0.0000       0.087284         2.3751
  21   0.0000       0.120169         3.2700
  22   0.0000       0.155642         4.2352
  23   0.0000       0.163547         4.4503
  24   0.0000       0.179809         4.8928

MULLIKEN ATOMIC CHARGES
-----------------------
   0 O :   -0.696102
   1 H :    0.349916
   2 H :    0.367589
   3 O :   -0.669457
   4 H :    0.328791
   5 H :    0.342975
   6 O :   -0.676448
   7 H :    0.346590
   8 H :    0.328516
   9 O :   -0.705534
  10 H :    0.324630
  11 H :    0.358534
Sum of atomic charges:   -0.0000000

LOEWDIN ATOMIC CHARGES
----------------------
   0 O :   -0.310465
   1 H :    0.162531
   2 H :    0.190526
   3 O :   -0.327676
   4 H :    0.160166
   5 H :    0.169556
   6 O :   -0.336061
   7 H :    0.168858
   8 H :    0.166491
   9 O :   -0.349641
  10 H :    0.158202
  11 H :    0.147512

  Mayer bond orders larger than 0.100000
B(  0-O ,  1-H ) :   0.8430 B(  0-O ,  2-H ) :   0.8248 B(  3-O ,  4-H ) :   0.8561
B(  3-O ,  5-H ) :   0.8493 B(  6-O ,  7-H ) :   0.8470 B(  6-O ,  8-H ) :   0.8541
B(  9-O , 10-H ) :   0.8608 B(  9-O , 11-H ) :   0.8153

MP2 TOTAL ENERGY:     -305.261844158 Eh
FINAL SINGLE POINT ENERGY      -305.261844158150

DIPOLE MOMENT
-------------
                                X             Y             Z
Electronic contribution:      0.03103       0.20658      -0.02283
Nuclear contribution   :      0.25770       0.11407      -0.14168
                        -----------------------------------------
Total Dipole Moment    :      0.28873       0.32065      -0.16452
                        -----------------------------------------
Magnitude (a.u.)       :      0.46178
Magnitude (Debye)      :      1.17375

Rotational constants in cm-1:     0.112146     0.031186     0.025459
Rotational constants in MHz :  3362.053934   934.940233   763.246522

                             ****ORCA TERMINATED NORMALLY****
TOTAL RUN TIME: 0 days 0 hours 0 minutes 14 seconds 126 msec
