                         Program Version 4.2.0 -  RELEASE  -
|  1> ! MP2 def2-TZVP EnGrad TightSCF FrozenCore
|  2>
|  3> %pal
|  4>     nprocs 12
|  5> end
|  6>
|  7> %maxcore 8000
|  8>
|  9> %scf
| 10>     ConvForced true
| 11> end
| 12>
| 13> *xyz 0 1
| 14> O     2.6806235232    -0.3947669785    -0.0542047536
| 15> H     1.9789653824     0.2794623971     0.0790181303
| 16> C     3.1252118295    -0.8126422282     1.2194209041
| 17> H     3.8985696219    -1.5729817592     1.0675031054
| 18> H     2.3238916921    -1.2636134977     1.8287185169
| 19> H     3.5707767169     0.0086098232     1.8046172635
| 20> O     0.4678478961     1.3206107993     0.0612623342
| 21> H    -0.0367782386     0.6480793704    -0.4662331736
| 22> C     0.6695572605     2.4648255949    -0.7587522709
| 23> H     1.2161634141     3.204160681     -0.1662248408
| 24> H    -0.2836358031     2.9131340466    -1.0751074238
| 25> H     1.2600469125     2.2337516826    -1.656509178
| 26> O    -0.8970080425    -0.6013495961    -1.2677329011
| 27> H    -1.7790553933    -0.6510383361    -0.8387518004
| 28> C    -0.2454806587    -1.8703102848    -1.1510114222
| 29> H     0.8324055766    -1.6901412925    -1.1424883566
| 30> H    -0.5061786411    -2.5215743135    -1.9958763369
| 31> H    -0.5178085449    -2.3812152586    -0.21764119
| 32> O    -3.1602922861    -0.2949716647     0.2995206561
| 33> H    -3.5845222702     0.480237034     -0.1002828461
| 34> C    -2.5423893481     0.126592105      1.5267403972
| 35> H    -2.1761546734    -0.7805202983     2.0124134435
| 36> H    -3.27190367       0.6068543557     2.1903542829
| 37> H    -1.6955453061     0.7998237628     1.3473420694
| 38> *
| 39>
| 40>                          ****END OF INPUT****

CARTESIAN COORDINATES (ANGSTROEM)
---------------------------------
  O      2.680624   -0.394767   -0.054205
  H      1.978965    0.279462    0.079018
  C      3.125212   -0.812642    1.219421
  H      3.898570   -1.572982    1.067503
  H      2.323892   -1.263613    1.828719
  H      3.570777    0.008610    1.804617
  O      0.467848    1.320611    0.061262
  H     -0.036778    0.648079   -0.466233
  C      0.669557    2.464826   -0.758752
  H      1.216163    3.204161   -0.166225
  H     -0.283636    2.913134   -1.075107
  H      1.260047    2.233752   -1.656509
  O     -0.897008   -0.601350   -1.267733
  H     -1.779055   -0.651038   -0.838752
  C     -0.245481   -1.870310   -1.151011
  H      0.832406   -1.690141   -1.142488
  H     -0.506179   -2.521574   -1.995876
  H     -0.517809   -2.381215   -0.217641
  O     -3.160292   -0.294972    0.299521
  H     -3.584522    0.480237   -0.100283
  C     -2.542389    0.126592    1.526740
  H     -2.176155   -0.780520    2.012413
  H     -3.271904    0.606854    2.190354
  H     -1.695545    0.799824    1.347342

 Total Charge           Charge          ....    0
 Multiplicity           Mult            ....    1
 Number of Electrons    NEL             ....   72
 Basis Dimension        Dim             ....  344

ORBITAL ENERGIES
----------------

  NO   OCC          E(Eh)            E(eV)
   0   2.0000     -20.586854      -560.1968
   1   2.0000     -20.555552      -559.3450
   2   2.0000     -20.544736      -559.0507
   3   2.0000     -20.522900      -558.4565
   4   2.0000     -11.285322      -307.0892
   5   2.0000     -11.266450      -306.5757
   6   2.0000     -11.264328      -306.5179
   7   2.0000     -11.252656      -306.2003
   8   2.0000      -1.382961       -37.6323
   9   2.0000      -1.358067       -36.9549
  10   2.0000      -1.341659       -36.5084
  11   2.0000      -1.323363       -36.0105
  12   2.0000      -0.941014       -25.6063
  13   2.0000      -0.920206       -25.0401
  14   2.0000      -0.915174       -24.9032
  15   2.0000      -0.898974       -24.4623
  16   2.0000      -0.717234       -19.5169
  17   2.0000      -0.700652       -19.0657
  18   2.0000      -0.686017       -18.6675
  19   2.0000      -0.671899       -18.2833
  20   2.0000      -0.633771       -17.2458
  21   2.0000      -0.614080       -16.7100
  22   2.0000      -0.610930       -16.6242
  23   2.0000      -0.609142       -16.5756
  24   2.0000      -0.596983       -16.2447
  25   2.0000      -0.587282       -15.9808
  26   2.0000      -0.585071       -15.9206
  27   2.0000      -0.568549       -15.4710
  28   2.0000      -0.529459       -14.4073
  29   2.0000      -0.509523       -13.8648
  30   2.0000      -0.495271       -13.4770
  31   2.0000      -0.482410       -13.1270
  32   2.0000      -0.470571       -12.8049
  33   2.0000      -0.448875       -12.2145
  34   2.0000      -0.438161       -11.9230
  35   2.0000      -0.421208       -11.4617
  36   0.0000       0.116183         3.1615
  37   0.0000       0.142550         3.8790
  38   0.0000       0.161096         4.3836
  39   0.0000       0.177876         4.8402
  40   0.0000       0.179935         4.8963

MULLIKEN ATOMIC CHARGES
-----------------------
   0 O :   -0.523547
   1 H :    0.346828
   2 C :   -0.162982
   3 H :    0.118633
   4 H :    0.094523
   5 H :    0.105099
   6 O :   -0.568145
   7 H :    0.372166
   8 C :   -0.173360
   9 H :    0.126003
  10 H :    0.108064
  11 H :    0.129976
  12 O :   -0.549429
  13 H :    0.357144
  14 C :   -0.199746
  15 H :    0.169377
  16 H :    0.119042
  17 H :    0.111550
  18 O :   -0.525370
  19 H :    0.339596
  20 C :   -0.216376
  21 H :    0.136018
  22 H :    0.128453
  23 H :    0.156483
Sum of atomic charges:   -0.0000000

LOEWDIN ATOMIC CHARGES
----------------------
   0 O :   -0.098859
   1 H :    0.163061
   2 C :   -0.401021
   3 H :    0.105764
   4 H :    0.091356
   5 H :    0.095084
   6 O :   -0.096669
   7 H :    0.161103
   8 C :   -0.390766
   9 H :    0.108402
  10 H :    0.097942
  11 H :    0.102658
  12 O :   -0.086463
  13 H :    0.162285
  14 C :   -0.375382
  15 H :    0.113883
  16 H :    0.101074
  17 H :    0.099647
  18 O :   -0.088779
  19 H :    0.181848
  20 C :   -0.367986
  21 H :    0.113628
  22 H :    0.103444
  23 H :    0.104746

  Mayer bond orders larger than 0.100000
B(  0-O ,  1-H ) :   0.7831 B(  0-O ,  2-C ) :   0.9392 B(  2-C ,  3-H ) :   0.9417
B(  2-C ,  4-H ) :   0.9355 B(  2-C ,  5-H ) :   0.9408 B(  6-O ,  7-H ) :   0.7361
B(  6-O ,  8-C ) :   0.8898 B(  7-H , 12-O ) :   0.1098 B(  8-C ,  9-H ) :   0.9420
B(  8-C , 10-H ) :   0.9389 B(  8-C , 11-H ) :   0.9394 B( 12-O , 13-H ) :   0.7810
B( 12-O , 14-C ) :   0.8686 B( 14-C , 15-H ) :   0.9263 B( 14-C , 16-H ) :   0.9409
B( 14-C , 17-H ) :   0.9385 B( 18-O , 19-H ) :   0.8363 B( 18-O , 20-C ) :   0.8525
B( 20-C , 21-H ) :   0.9401 B( 20-C , 22-H ) :   0.9359 B( 20-C , 23-H ) :   0.9250

MP2 TOTAL ENERGY:     -462.067581285 Eh
FINAL SINGLE POINT ENERGY      -462.067581285464

DIPOLE MOMENT
-------------
                                X             Y             Z
Electronic contribution:     -2.50900       0.07352      -2.29508
Nuclear contribution   :      1.28177       0.33075       2.80185
                        -----------------------------------------
Total Dipole Moment    :     -1.22723       0.40427       0.50677
                        -----------------------------------------
Magnitude (a.u.)       :      1.38793
Magnitude (Debye)      :      3.52783

Rotational constants in cm-1:     0.050900     0.024313     0.021740
Rotational constants in MHz :  1525.935976   728.889041   651.763761

                             ****ORCA TERMINATED NORMALLY****
TOTAL RUN TIME: 0 days 0 hours 4 minutes 36 seconds 633 msec
