                         Program Version 4.2.0 -  RELEASE  -
|  1> # 12h2o.su.etal.mol0,2,7,11
|  2> ! MP2 def2-TZVP EnGrad TightSCF
|  3>
|  4> %pal
|  5>     nprocs 6
|  6> end
|  7>
|  8> %maxcore 8000
|  9>
| 10> %scf
| 11>     ConvForced true
| 12> end
| 13>
| 14> *xyz 0 1
| 15> O   1.794470000   0.923410000   2.768350000
| 16> H   2.338250000   1.359750000   3.430940000
| 17> H   0.879480000   1.303000000   2.865760000
| 18> O   0.923410000  -1.794470000  -2.768350000
| 19> H   1.359750000  -2.338250000  -3.430940000
| 20> H   1.303000000  -0.879480000  -2.865760000
| 21> O  -1.737840000  -0.885520000  -0.052730000
| 22> H  -2.090180000  -1.032320000   0.841890000
| 23> H  -0.839590000  -1.284090000  -0.017130000
| 24> O  -0.741530000   1.752130000   2.896280000
| 25> H  -0.920500000   2.036450000   1.984040000
| 26> H  -1.242140000   0.921210000   2.984230000
| 27> *
| 28>
| 29>                          ****END OF INPUT****

CARTESIAN COORDINATES (ANGSTROEM)
---------------------------------
  O      1.794470    0.923410    2.768350
  H      2.338250    1.359750    3.430940
  H      0.879480    1.303000    2.865760
  O      0.923410   -1.794470   -2.768350
  H      1.359750   -2.338250   -3.430940
  H      1.303000   -0.879480   -2.865760
  O     -1.737840   -0.885520   -0.052730
  H     -2.090180   -1.032320    0.841890
  H     -0.839590   -1.284090   -0.017130
  O     -0.741530    1.752130    2.896280
  H     -0.920500    2.036450    1.984040
  H     -1.242140    0.921210    2.984230

 Total Charge           Charge          ....    0
 Multiplicity           Mult            ....    1
 Number of Electrons    NEL             ....   40
 Basis Dimension        Dim             ....  172

ORBITAL ENERGIES
----------------

  NO   OCC          E(Eh)            E(eV)
   0   2.0000     -20.598671      -560.5183
   1   2.0000     -20.563580      -559.5634
   2   2.0000     -20.562595      -559.5367
   3   2.0000     -20.519110      -558.3534
   4   2.0000      -1.383890       -37.6576
   5   2.0000      -1.339376       -36.4463
   6   2.0000      -1.337835       -36.4044
   7   2.0000      -1.301527       -35.4163
   8   2.0000      -0.741507       -20.1774
   9   2.0000      -0.706435       -19.2231
  10   2.0000      -0.700899       -19.0724
  11   2.0000      -0.692567       -18.8457
  12   2.0000      -0.618841       -16.8395
  13   2.0000      -0.578455       -15.7406
  14   2.0000      -0.574218       -15.6253
  15   2.0000      -0.559306       -15.2195
  16   2.0000      -0.515770       -14.0348
  17   2.0000      -0.506178       -13.7738
  18   2.0000      -0.505652       -13.7595
  19   2.0000      -0.469498       -12.7757
  20   0.0000       0.091237         2.4827
  21   0.0000       0.124347         3.3837
  22   0.0000       0.157147         4.2762
  23   0.0000       0.177482         4.8295
  24   0.0000       0.183384         4.9901

MULLIKEN ATOMIC CHARGES
-----------------------
   0 O :   -0.731989
   1 H :    0.325554
   2 H :    0.363301
   3 O :   -0.683343
   4 H :    0.339659
   5 H :    0.345677
   6 O :   -0.676805
   7 H :    0.321302
   8 H :    0.356662
   9 O :   -0.675701
  10 H :    0.364588
  11 H :    0.351094
Sum of atomic charges:   -0.0000000

LOEWDIN ATOMIC CHARGES
----------------------
   0 O :   -0.372567
   1 H :    0.148674
   2 H :    0.141203
   3 O :   -0.338791
   4 H :    0.158508
   5 H :    0.182237
   6 O :   -0.335766
   7 H :    0.157006
   8 H :    0.179425
   9 O :   -0.269244
  10 H :    0.176986
  11 H :    0.172329

  Mayer bond orders larger than 0.100000
B(  0-O ,  1-H ) :   0.8606 B(  0-O ,  2-H ) :   0.7897 B(  3-O ,  4-H ) :   0.8524
B(  3-O ,  5-H ) :   0.8436 B(  6-O ,  7-H ) :   0.8605 B(  6-O ,  8-H ) :   0.8371
B(  9-O , 10-H ) :   0.8323 B(  9-O , 11-H ) :   0.8400

MP2 TOTAL ENERGY:     -305.260138193 Eh
FINAL SINGLE POINT ENERGY      -305.260138192811

DIPOLE MOMENT
-------------
                                X             Y             Z
Electronic contribution:     -0.31299       0.04612      -0.09605
Nuclear contribution   :      0.25891       0.07922       0.08817
                        -----------------------------------------
Total Dipole Moment    :     -0.05409       0.12534      -0.00788
                        -----------------------------------------
Magnitude (a.u.)       :      0.13674
Magnitude (Debye)      :      0.34756

Rotational constants in cm-1:     0.112406     0.031153     0.025150
Rotational constants in MHz :  3369.851641   933.933980   753.990379

                             ****ORCA TERMINATED NORMALLY****
TOTAL RUN TIME: 0 days 0 hours 0 minutes 14 seconds 897 msec
