                         Program Version 3.0.3 - RELEASE   -
|  1> ! wB97X-D3 Def2-TZVP def2-TZVP/J RIJCOSX TightSCF Grid4
|  2>
|  3> %pal nprocs 12 end
|  4>
|  5> %scf
|  6>         maxiter 400
|  7> end
|  8>
|  9> * xyz  0  1
| 10> O  -0.170086	2.277273	-0.324506
| 11> H  0.136181	1.787329	-1.119694
| 12> H  0.495244	2.050991	0.363862
| 13> O  0.256198	-2.256047	0.368243
| 14> H  1.076304	-1.734748	0.072293
| 15> H  0.542941	-3.173011	0.472868
| 16> O  -1.467793	-1.160320	-1.475387
| 17> H  -1.932809	-0.540442	-0.870544
| 18> H  -0.968401	-1.740647	-0.858057
| 19> O  1.439735	1.078939	1.531782
| 20> H  1.904722	1.429727	2.302249
| 21> H  0.672298	0.512736	1.886776
| 22> O  -0.568827	-0.400981	2.177859
| 23> H  -1.309872	-0.005877	1.665614
| 24> H  -0.349072	-1.219406	1.677607
| 25> O  -2.183540	0.785823	0.336875
| 26> H  -3.002618	1.289707	0.432287
| 27> H  -1.462746	1.451914	0.077717
| 28> O  2.210882	-0.714509	-0.395744
| 29> H  2.147308	-0.026094	0.304082
| 30> H  1.776984	-0.295948	-1.172895
| 31> O  0.493792	0.380696	-2.228773
| 32> H  0.553168	0.454884	-3.190065
| 33> H  -0.289993	-0.231990	-2.034452
| 34> **                         ****END OF INPUT****

CARTESIAN COORDINATES (ANGSTROEM)
---------------------------------
  O     -0.170086    2.277273   -0.324506
  H      0.136181    1.787329   -1.119694
  H      0.495244    2.050991    0.363862
  O      0.256198   -2.256047    0.368243
  H      1.076304   -1.734748    0.072293
  H      0.542941   -3.173011    0.472868
  O     -1.467793   -1.160320   -1.475387
  H     -1.932809   -0.540442   -0.870544
  H     -0.968401   -1.740647   -0.858057
  O      1.439735    1.078939    1.531782
  H      1.904722    1.429727    2.302249
  H      0.672298    0.512736    1.886776
  O     -0.568827   -0.400981    2.177859
  H     -1.309872   -0.005877    1.665614
  H     -0.349072   -1.219406    1.677607
  O     -2.183540    0.785823    0.336875
  H     -3.002618    1.289707    0.432287
  H     -1.462746    1.451914    0.077717
  O      2.210882   -0.714509   -0.395744
  H      2.147308   -0.026094    0.304082
  H      1.776984   -0.295948   -1.172895
  O      0.493792    0.380696   -2.228773
  H      0.553168    0.454884   -3.190065
  H     -0.289993   -0.231990   -2.034452

 Total Charge           Charge          ....    0
 Multiplicity           Mult            ....    1
 Number of Electrons    NEL             ....   80
 Basis Dimension        Dim             ....  344

ORBITAL ENERGIES
----------------

  NO   OCC          E(Eh)            E(eV)
   0   2.0000     -19.245249      -523.6898
   1   2.0000     -19.244636      -523.6732
   2   2.0000     -19.244238      -523.6623
   3   2.0000     -19.242153      -523.6056
   4   2.0000     -19.225255      -523.1458
   5   2.0000     -19.224449      -523.1239
   6   2.0000     -19.223267      -523.0917
   7   2.0000     -19.223137      -523.0881
   8   2.0000      -1.151495       -31.3338
   9   2.0000      -1.138764       -30.9873
  10   2.0000      -1.137816       -30.9615
  11   2.0000      -1.132431       -30.8150
  12   2.0000      -1.117004       -30.3952
  13   2.0000      -1.111071       -30.2338
  14   2.0000      -1.110573       -30.2202
  15   2.0000      -1.098967       -29.9044
  16   2.0000      -0.653819       -17.7913
  17   2.0000      -0.652601       -17.7582
  18   2.0000      -0.651265       -17.7218
  19   2.0000      -0.645336       -17.5605
  20   2.0000      -0.629864       -17.1395
  21   2.0000      -0.623040       -16.9538
  22   2.0000      -0.621796       -16.9199
  23   2.0000      -0.620345       -16.8804
  24   2.0000      -0.570693       -15.5293
  25   2.0000      -0.532243       -14.4831
  26   2.0000      -0.519348       -14.1322
  27   2.0000      -0.518925       -14.1207
  28   2.0000      -0.490764       -13.3544
  29   2.0000      -0.490504       -13.3473
  30   2.0000      -0.485484       -13.2107
  31   2.0000      -0.451485       -12.2855
  32   2.0000      -0.431426       -11.7397
  33   2.0000      -0.431093       -11.7306
  34   2.0000      -0.430069       -11.7028
  35   2.0000      -0.427054       -11.6207
  36   2.0000      -0.413439       -11.2502
  37   2.0000      -0.411354       -11.1935
  38   2.0000      -0.409694       -11.1483
  39   2.0000      -0.409549       -11.1444
  40   0.0000       0.087185         2.3724
  41   0.0000       0.123045         3.3482
  42   0.0000       0.123686         3.3657
  43   0.0000       0.124934         3.3996
  44   0.0000       0.199273         5.4225

MULLIKEN ATOMIC CHARGES
-----------------------
   0 O :   -0.692496
   1 H :    0.362174
   2 H :    0.365986
   3 O :   -0.754621
   4 H :    0.364399
   5 H :    0.352461
   6 O :   -0.688484
   7 H :    0.364178
   8 H :    0.362529
   9 O :   -0.758434
  10 H :    0.350898
  11 H :    0.369428
  12 O :   -0.694899
  13 H :    0.365509
  14 H :    0.365681
  15 O :   -0.755768
  16 H :    0.351605
  17 H :    0.368631
  18 O :   -0.691451
  19 H :    0.365690
  20 H :    0.364415
  21 O :   -0.755094
  22 H :    0.352614
  23 H :    0.365050
Sum of atomic charges:   -0.0000000

LOEWDIN ATOMIC CHARGES
----------------------
   0 O :   -0.274983
   1 H :    0.142484
   2 H :    0.141262
   3 O :   -0.302412
   4 H :    0.139902
   5 H :    0.159987
   6 O :   -0.277892
   7 H :    0.141695
   8 H :    0.141390
   9 O :   -0.306058
  10 H :    0.158718
  11 H :    0.136364
  12 O :   -0.273519
  13 H :    0.139894
  14 H :    0.140180
  15 O :   -0.303164
  16 H :    0.159632
  17 H :    0.138083
  18 O :   -0.277833
  19 H :    0.141020
  20 H :    0.140616
  21 O :   -0.304348
  22 H :    0.159721
  23 H :    0.139261

  Mayer bond orders larger than 0.1
B(  0-O ,  1-H ) :   0.8313 B(  0-O ,  2-H ) :   0.8227 B(  0-O , 17-H ) :   0.1829
B(  3-O ,  4-H ) :   0.7306 B(  3-O ,  5-H ) :   0.8808 B(  4-H , 18-O ) :   0.1893
B(  6-O ,  7-H ) :   0.8303 B(  6-O ,  8-H ) :   0.8300 B(  6-O , 23-H ) :   0.1853
B(  9-O , 10-H ) :   0.8817 B(  9-O , 11-H ) :   0.7266 B( 11-H , 12-O ) :   0.1875
B( 12-O , 13-H ) :   0.8222 B( 12-O , 14-H ) :   0.8242 B( 15-O , 16-H ) :   0.8812
B( 15-O , 17-H ) :   0.7317 B( 18-O , 19-H ) :   0.8267 B( 18-O , 20-H ) :   0.8275
B( 21-O , 22-H ) :   0.8809 B( 21-O , 23-H ) :   0.7338

Dispersion correction           -0.012307003
FINAL SINGLE POINT ENERGY      -611.645910803412

DIPOLE MOMENT
-------------
                                X             Y             Z
Electronic contribution:     -0.00728      -0.00679      -0.01070
Nuclear contribution   :     -0.02587       0.02279       0.02410
                        -----------------------------------------
Total Dipole Moment    :     -0.03315       0.01600       0.01340
                        -----------------------------------------
Magnitude (a.u.)       :      0.03918
Magnitude (Debye)      :      0.09958

                             ****ORCA TERMINATED NORMALLY****
TOTAL RUN TIME: 0 days 0 hours 1 minutes 4 seconds 98 msec
