                         Program Version 4.2.0 -  RELEASE  -
|  1> # 12h2o.su.etal.mol2,4,5,6,9,11
|  2> ! MP2 def2-TZVP EnGrad TightSCF
|  3>
|  4> %pal
|  5>     nprocs 6
|  6> end
|  7>
|  8> %maxcore 8000
|  9>
| 10> %scf
| 11>     ConvForced true
| 12> end
| 13>
| 14> *xyz 0 1
| 15> O   0.923410000  -1.794470000  -2.768350000
| 16> H   1.359750000  -2.338250000  -3.430940000
| 17> H   1.303000000  -0.879480000  -2.865760000
| 18> O  -0.885520000   1.737840000   0.052730000
| 19> H  -1.032320000   2.090180000  -0.841890000
| 20> H  -1.284090000   0.839590000   0.017130000
| 21> O   0.885520000  -1.737840000   0.052730000
| 22> H   1.284090000  -0.839590000   0.017130000
| 23> H   1.032320000  -2.090180000  -0.841890000
| 24> O   1.737840000   0.885520000  -0.052730000
| 25> H   2.090180000   1.032320000   0.841890000
| 26> H   0.839590000   1.284090000  -0.017130000
| 27> O   0.741530000  -1.752130000   2.896280000
| 28> H   0.920500000  -2.036450000   1.984040000
| 29> H   1.242140000  -0.921210000   2.984230000
| 30> O  -0.741530000   1.752130000   2.896280000
| 31> H  -0.920500000   2.036450000   1.984040000
| 32> H  -1.242140000   0.921210000   2.984230000
| 33> *
| 34>
| 35>                          ****END OF INPUT****

CARTESIAN COORDINATES (ANGSTROEM)
---------------------------------
  O      0.923410   -1.794470   -2.768350
  H      1.359750   -2.338250   -3.430940
  H      1.303000   -0.879480   -2.865760
  O     -0.885520    1.737840    0.052730
  H     -1.032320    2.090180   -0.841890
  H     -1.284090    0.839590    0.017130
  O      0.885520   -1.737840    0.052730
  H      1.284090   -0.839590    0.017130
  H      1.032320   -2.090180   -0.841890
  O      1.737840    0.885520   -0.052730
  H      2.090180    1.032320    0.841890
  H      0.839590    1.284090   -0.017130
  O      0.741530   -1.752130    2.896280
  H      0.920500   -2.036450    1.984040
  H      1.242140   -0.921210    2.984230
  O     -0.741530    1.752130    2.896280
  H     -0.920500    2.036450    1.984040
  H     -1.242140    0.921210    2.984230

 Total Charge           Charge          ....    0
 Multiplicity           Mult            ....    1
 Number of Electrons    NEL             ....   60
 Basis Dimension        Dim             ....  258

ORBITAL ENERGIES
----------------

  NO   OCC          E(Eh)            E(eV)
   0   2.0000     -20.628131      -561.3200
   1   2.0000     -20.593395      -560.3748
   2   2.0000     -20.574705      -559.8662
   3   2.0000     -20.544109      -559.0336
   4   2.0000     -20.526323      -558.5497
   5   2.0000     -20.519821      -558.3727
   6   2.0000      -1.411391       -38.4059
   7   2.0000      -1.371376       -37.3170
   8   2.0000      -1.360331       -37.0165
   9   2.0000      -1.325992       -36.0821
  10   2.0000      -1.314326       -35.7646
  11   2.0000      -1.299803       -35.3694
  12   2.0000      -0.768763       -20.9191
  13   2.0000      -0.738344       -20.0914
  14   2.0000      -0.731073       -19.8935
  15   2.0000      -0.700069       -19.0499
  16   2.0000      -0.694070       -18.8866
  17   2.0000      -0.668626       -18.1942
  18   2.0000      -0.647096       -17.6084
  19   2.0000      -0.617471       -16.8022
  20   2.0000      -0.606180       -16.4950
  21   2.0000      -0.575217       -15.6524
  22   2.0000      -0.563786       -15.3414
  23   2.0000      -0.553580       -15.0637
  24   2.0000      -0.542663       -14.7666
  25   2.0000      -0.526682       -14.3318
  26   2.0000      -0.509274       -13.8581
  27   2.0000      -0.490752       -13.3540
  28   2.0000      -0.478355       -13.0167
  29   2.0000      -0.465620       -12.6702
  30   0.0000       0.082185         2.2364
  31   0.0000       0.115248         3.1360
  32   0.0000       0.134457         3.6587
  33   0.0000       0.157173         4.2769
  34   0.0000       0.184815         5.0291

MULLIKEN ATOMIC CHARGES
-----------------------
   0 O :   -0.697084
   1 H :    0.351904
   2 H :    0.356436
   3 O :   -0.716192
   4 H :    0.369807
   5 H :    0.377362
   6 O :   -0.746975
   7 H :    0.336656
   8 H :    0.367936
   9 O :   -0.713123
  10 H :    0.355294
  11 H :    0.368098
  12 O :   -0.702824
  13 H :    0.375490
  14 H :    0.315408
  15 O :   -0.699439
  16 H :    0.362840
  17 H :    0.338406
Sum of atomic charges:    0.0000000

LOEWDIN ATOMIC CHARGES
----------------------
   0 O :   -0.312049
   1 H :    0.163287
   2 H :    0.185508
   3 O :   -0.275915
   4 H :    0.178233
   5 H :    0.187379
   6 O :   -0.351006
   7 H :    0.134783
   8 H :    0.148294
   9 O :   -0.310235
  10 H :    0.168948
  11 H :    0.144106
  12 O :   -0.343634
  13 H :    0.153075
  14 H :    0.152964
  15 O :   -0.336830
  16 H :    0.148419
  17 H :    0.164675

  Mayer bond orders larger than 0.100000
B(  0-O ,  1-H ) :   0.8421 B(  0-O ,  2-H ) :   0.8330 B(  3-O ,  4-H ) :   0.8278
B(  3-O ,  5-H ) :   0.8144 B(  6-O ,  7-H ) :   0.7865 B(  6-O ,  8-H ) :   0.8174
B(  9-O , 10-H ) :   0.8384 B(  9-O , 11-H ) :   0.7876 B( 12-O , 13-H ) :   0.8096
B( 12-O , 14-H ) :   0.8620 B( 15-O , 16-H ) :   0.8301 B( 15-O , 17-H ) :   0.8480

MP2 TOTAL ENERGY:     -457.918983746 Eh
FINAL SINGLE POINT ENERGY      -457.918983745879

DIPOLE MOMENT
-------------
                                X             Y             Z
Electronic contribution:     -0.23047       0.13786      -0.05258
Nuclear contribution   :      0.22475       0.76293      -2.77909
                        -----------------------------------------
Total Dipole Moment    :     -0.00572       0.90078      -2.83166
                        -----------------------------------------
Magnitude (a.u.)       :      2.97149
Magnitude (Debye)      :      7.55293

Rotational constants in cm-1:     0.055525     0.030374     0.022590
Rotational constants in MHz :  1664.592383   910.575192   677.231299

                             ****ORCA TERMINATED NORMALLY****
TOTAL RUN TIME: 0 days 0 hours 1 minutes 4 seconds 733 msec
