                         Program Version 4.2.0 -  RELEASE  -
|  1> # 12h2o.su.etal.mol0,4,5,9,10
|  2> ! MP2 def2-TZVP EnGrad TightSCF
|  3>
|  4> %pal
|  5>     nprocs 6
|  6> end
|  7>
|  8> %maxcore 8000
|  9>
| 10> %scf
| 11>     ConvForced true
| 12> end
| 13>
| 14> *xyz 0 1
| 15> O   1.794470000   0.923410000   2.768350000
| 16> H   2.338250000   1.359750000   3.430940000
| 17> H   0.879480000   1.303000000   2.865760000
| 18> O  -0.885520000   1.737840000   0.052730000
| 19> H  -1.032320000   2.090180000  -0.841890000
| 20> H  -1.284090000   0.839590000   0.017130000
| 21> O   0.885520000  -1.737840000   0.052730000
| 22> H   1.284090000  -0.839590000   0.017130000
| 23> H   1.032320000  -2.090180000  -0.841890000
| 24> O   0.741530000  -1.752130000   2.896280000
| 25> H   0.920500000  -2.036450000   1.984040000
| 26> H   1.242140000  -0.921210000   2.984230000
| 27> O  -0.923410000   1.794470000  -2.768350000
| 28> H  -1.359750000   2.338250000  -3.430940000
| 29> H  -1.303000000   0.879480000  -2.865760000
| 30> *
| 31>
| 32>                          ****END OF INPUT****

CARTESIAN COORDINATES (ANGSTROEM)
---------------------------------
  O      1.794470    0.923410    2.768350
  H      2.338250    1.359750    3.430940
  H      0.879480    1.303000    2.865760
  O     -0.885520    1.737840    0.052730
  H     -1.032320    2.090180   -0.841890
  H     -1.284090    0.839590    0.017130
  O      0.885520   -1.737840    0.052730
  H      1.284090   -0.839590    0.017130
  H      1.032320   -2.090180   -0.841890
  O      0.741530   -1.752130    2.896280
  H      0.920500   -2.036450    1.984040
  H      1.242140   -0.921210    2.984230
  O     -0.923410    1.794470   -2.768350
  H     -1.359750    2.338250   -3.430940
  H     -1.303000    0.879480   -2.865760

 Total Charge           Charge          ....    0
 Multiplicity           Mult            ....    1
 Number of Electrons    NEL             ....   50
 Basis Dimension        Dim             ....  215

ORBITAL ENERGIES
----------------

  NO   OCC          E(Eh)            E(eV)
   0   2.0000     -20.598514      -560.5141
   1   2.0000     -20.575175      -559.8790
   2   2.0000     -20.572082      -559.7948
   3   2.0000     -20.539356      -558.9043
   4   2.0000     -20.494398      -557.6809
   5   2.0000      -1.376347       -37.4523
   6   2.0000      -1.353562       -36.8323
   7   2.0000      -1.349692       -36.7270
   8   2.0000      -1.318219       -35.8706
   9   2.0000      -1.279753       -34.8238
  10   2.0000      -0.743308       -20.2264
  11   2.0000      -0.716815       -19.5055
  12   2.0000      -0.715273       -19.4636
  13   2.0000      -0.687709       -18.7135
  14   2.0000      -0.658016       -17.9055
  15   2.0000      -0.613306       -16.6889
  16   2.0000      -0.599462       -16.3122
  17   2.0000      -0.581818       -15.8321
  18   2.0000      -0.567128       -15.4323
  19   2.0000      -0.532077       -14.4786
  20   2.0000      -0.530807       -14.4440
  21   2.0000      -0.517224       -14.0744
  22   2.0000      -0.500343       -13.6150
  23   2.0000      -0.484682       -13.1889
  24   2.0000      -0.444452       -12.0942
  25   0.0000       0.090506         2.4628
  26   0.0000       0.123044         3.3482
  27   0.0000       0.138055         3.7567
  28   0.0000       0.170384         4.6364
  29   0.0000       0.184483         5.0200

MULLIKEN ATOMIC CHARGES
-----------------------
   0 O :   -0.698903
   1 H :    0.347854
   2 H :    0.370107
   3 O :   -0.701311
   4 H :    0.366438
   5 H :    0.326860
   6 O :   -0.698261
   7 H :    0.361015
   8 H :    0.339797
   9 O :   -0.727151
  10 H :    0.361549
  11 H :    0.341463
  12 O :   -0.692691
  13 H :    0.353237
  14 H :    0.349998
Sum of atomic charges:   -0.0000000

LOEWDIN ATOMIC CHARGES
----------------------
   0 O :   -0.312606
   1 H :    0.161318
   2 H :    0.191352
   3 O :   -0.347706
   4 H :    0.149160
   5 H :    0.163754
   6 O :   -0.319352
   7 H :    0.179032
   8 H :    0.165923
   9 O :   -0.357009
  10 H :    0.148474
  11 H :    0.140533
  12 O :   -0.310275
  13 H :    0.163807
  14 H :    0.183596

  Mayer bond orders larger than 0.100000
B(  0-O ,  1-H ) :   0.8443 B(  0-O ,  2-H ) :   0.8227 B(  3-O ,  4-H ) :   0.8197
B(  3-O ,  5-H ) :   0.8533 B(  6-O ,  7-H ) :   0.8278 B(  6-O ,  8-H ) :   0.8473
B(  9-O , 10-H ) :   0.8307 B(  9-O , 11-H ) :   0.8299 B( 12-O , 13-H ) :   0.8411
B( 12-O , 14-H ) :   0.8370

MP2 TOTAL ENERGY:     -381.586562551 Eh
FINAL SINGLE POINT ENERGY      -381.586562551135

DIPOLE MOMENT
-------------
                                X             Y             Z
Electronic contribution:      0.11883       0.11652       0.02520
Nuclear contribution   :     -0.42247       0.82514      -2.23466
                        -----------------------------------------
Total Dipole Moment    :     -0.30365       0.94166      -2.20947
                        -----------------------------------------
Magnitude (a.u.)       :      2.42088
Magnitude (Debye)      :      6.15339

Rotational constants in cm-1:     0.090058     0.028571     0.023655
Rotational constants in MHz :  2699.859761   856.531279   709.167864

                             ****ORCA TERMINATED NORMALLY****
TOTAL RUN TIME: 0 days 0 hours 0 minutes 36 seconds 213 msec
