                         Program Version 4.2.0 -  RELEASE  -
|  1> # 12mecn.remya.etal.2.mol5,7,8
|  2> ! MP2 def2-TZVP EnGrad TightSCF
|  3>
|  4> %pal
|  5>     nprocs 6
|  6> end
|  7>
|  8> %maxcore 8000
|  9>
| 10> %scf
| 11>     ConvForced true
| 12> end
| 13>
| 14> *xyz 0 1
| 15> C  -1.955700000   2.515080000   1.698463000
| 16> H  -2.923830000   2.883163000   2.049269000
| 17> H  -1.154850000   3.171830000   2.050990000
| 18> H  -1.790380000   1.506115000   2.087896000
| 19> C  -1.948230000   2.482156000   0.253672000
| 20> N  -1.937550000   2.462523000  -0.913150000
| 21> C   1.502241000   0.651296000   1.710523000
| 22> H   1.309219000   1.637164000   2.143202000
| 23> H   2.493408000   0.297996000   2.009069000
| 24> H   0.746597000  -0.059850000   2.055508000
| 25> C   1.447974000   0.738517000   0.269805000
| 26> N   1.405612000   0.808047000  -0.894380000
| 27> C   1.912641000  -2.468050000  -1.750510000
| 28> H   2.876947000  -2.793500000  -2.151200000
| 29> H   1.688016000  -1.463720000  -2.122170000
| 30> H   1.123460000  -3.154780000  -2.069590000
| 31> C   1.977850000  -2.444240000  -0.306900000
| 32> N   2.036566000  -2.426130000   0.858249000
| 33> *
| 34>
| 35>                          ****END OF INPUT****

CARTESIAN COORDINATES (ANGSTROEM)
---------------------------------
  C     -1.955700    2.515080    1.698463
  H     -2.923830    2.883163    2.049269
  H     -1.154850    3.171830    2.050990
  H     -1.790380    1.506115    2.087896
  C     -1.948230    2.482156    0.253672
  N     -1.937550    2.462523   -0.913150
  C      1.502241    0.651296    1.710523
  H      1.309219    1.637164    2.143202
  H      2.493408    0.297996    2.009069
  H      0.746597   -0.059850    2.055508
  C      1.447974    0.738517    0.269805
  N      1.405612    0.808047   -0.894380
  C      1.912641   -2.468050   -1.750510
  H      2.876947   -2.793500   -2.151200
  H      1.688016   -1.463720   -2.122170
  H      1.123460   -3.154780   -2.069590
  C      1.977850   -2.444240   -0.306900
  N      2.036566   -2.426130    0.858249

 Total Charge           Charge          ....    0
 Multiplicity           Mult            ....    1
 Number of Electrons    NEL             ....   66
 Basis Dimension        Dim             ....  333

ORBITAL ENERGIES
----------------

  NO   OCC          E(Eh)            E(eV)
   0   2.0000     -15.570506      -423.6950
   1   2.0000     -15.570285      -423.6890
   2   2.0000     -15.568107      -423.6297
   3   2.0000     -11.287455      -307.1473
   4   2.0000     -11.282386      -307.0093
   5   2.0000     -11.278254      -306.8969
   6   2.0000     -11.277053      -306.8642
   7   2.0000     -11.275957      -306.8344
   8   2.0000     -11.271410      -306.7107
   9   2.0000      -1.216362       -33.0989
  10   2.0000      -1.211280       -32.9606
  11   2.0000      -1.210198       -32.9312
  12   2.0000      -1.045200       -28.4413
  13   2.0000      -1.038135       -28.2491
  14   2.0000      -1.033775       -28.1305
  15   2.0000      -0.700543       -19.0628
  16   2.0000      -0.694084       -18.8870
  17   2.0000      -0.690381       -18.7862
  18   2.0000      -0.638273       -17.3683
  19   2.0000      -0.634201       -17.2575
  20   2.0000      -0.629675       -17.1343
  21   2.0000      -0.623733       -16.9726
  22   2.0000      -0.621284       -16.9060
  23   2.0000      -0.616017       -16.7627
  24   2.0000      -0.557798       -15.1784
  25   2.0000      -0.553599       -15.0642
  26   2.0000      -0.551018       -14.9940
  27   2.0000      -0.463886       -12.6230
  28   2.0000      -0.459557       -12.5052
  29   2.0000      -0.457782       -12.4569
  30   2.0000      -0.454557       -12.3691
  31   2.0000      -0.450794       -12.2667
  32   2.0000      -0.445402       -12.1200
  33   0.0000       0.102199         2.7810
  34   0.0000       0.134234         3.6527
  35   0.0000       0.150355         4.0914
  36   0.0000       0.157499         4.2858
  37   0.0000       0.163154         4.4396

MULLIKEN ATOMIC CHARGES
-----------------------
   0 C :   -0.288399
   1 H :    0.180933
   2 H :    0.168491
   3 H :    0.167750
   4 C :   -0.150913
   5 N :   -0.078149
   6 C :   -0.267723
   7 H :    0.162225
   8 H :    0.185907
   9 H :    0.175640
  10 C :   -0.124386
  11 N :   -0.131761
  12 C :   -0.285984
  13 H :    0.166206
  14 H :    0.208106
  15 H :    0.166791
  16 C :   -0.111652
  17 N :   -0.143082
Sum of atomic charges:   -0.0000000

LOEWDIN ATOMIC CHARGES
----------------------
   0 C :   -0.287618
   1 H :    0.153217
   2 H :    0.150519
   3 H :    0.150004
   4 C :   -0.223607
   5 N :    0.057032
   6 C :   -0.288976
   7 H :    0.145413
   8 H :    0.158158
   9 H :    0.154518
  10 C :   -0.216769
  11 N :    0.043301
  12 C :   -0.280871
  13 H :    0.152232
  14 H :    0.158517
  15 H :    0.152039
  16 C :   -0.208928
  17 N :    0.031822

  Mayer bond orders larger than 0.100000
B(  0-C ,  1-H ) :   0.9117 B(  0-C ,  2-H ) :   0.9221 B(  0-C ,  3-H ) :   0.9191
B(  0-C ,  4-C ) :   0.8968 B(  4-C ,  5-N ) :   2.8296 B(  6-C ,  7-H ) :   0.9145
B(  6-C ,  8-H ) :   0.9074 B(  6-C ,  9-H ) :   0.9193 B(  6-C , 10-C ) :   0.9024
B( 10-C , 11-N ) :   2.7613 B( 12-C , 13-H ) :   0.9152 B( 12-C , 14-H ) :   0.9024
B( 12-C , 15-H ) :   0.9151 B( 12-C , 16-C ) :   0.8992 B( 16-C , 17-N ) :   2.7937

MP2 TOTAL ENERGY:     -397.458081608 Eh
FINAL SINGLE POINT ENERGY      -397.458081607817

DIPOLE MOMENT
-------------
                                X             Y             Z
Electronic contribution:      0.04553       0.17522      -3.26041
Nuclear contribution   :     -0.06645      -0.26554       4.62074
                        -----------------------------------------
Total Dipole Moment    :     -0.02092      -0.09032       1.36033
                        -----------------------------------------
Magnitude (a.u.)       :      1.36349
Magnitude (Debye)      :      3.46571

Rotational constants in cm-1:     0.071643     0.018586     0.016696
Rotational constants in MHz :  2147.815114   557.185487   500.520515

                             ****ORCA TERMINATED NORMALLY****
TOTAL RUN TIME: 0 days 0 hours 3 minutes 51 seconds 743 msec
