                         Program Version 4.2.0 -  RELEASE  -
|  1> # 12h2o.su.etal.mol0,3,4,5,7,8,11
|  2> ! MP2 def2-TZVP EnGrad TightSCF
|  3>
|  4> %pal
|  5>     nprocs 6
|  6> end
|  7>
|  8> %maxcore 8000
|  9>
| 10> %scf
| 11>     ConvForced true
| 12> end
| 13>
| 14> *xyz 0 1
| 15> O   1.794470000   0.923410000   2.768350000
| 16> H   2.338250000   1.359750000   3.430940000
| 17> H   0.879480000   1.303000000   2.865760000
| 18> O  -1.752130000  -0.741530000  -2.896280000
| 19> H  -2.036450000  -0.920500000  -1.984040000
| 20> H  -0.921210000  -1.242140000  -2.984230000
| 21> O  -0.885520000   1.737840000   0.052730000
| 22> H  -1.032320000   2.090180000  -0.841890000
| 23> H  -1.284090000   0.839590000   0.017130000
| 24> O   0.885520000  -1.737840000   0.052730000
| 25> H   1.284090000  -0.839590000   0.017130000
| 26> H   1.032320000  -2.090180000  -0.841890000
| 27> O  -1.737840000  -0.885520000  -0.052730000
| 28> H  -2.090180000  -1.032320000   0.841890000
| 29> H  -0.839590000  -1.284090000  -0.017130000
| 30> O   1.752130000   0.741530000  -2.896280000
| 31> H   2.036450000   0.920500000  -1.984040000
| 32> H   0.921210000   1.242140000  -2.984230000
| 33> O  -0.741530000   1.752130000   2.896280000
| 34> H  -0.920500000   2.036450000   1.984040000
| 35> H  -1.242140000   0.921210000   2.984230000
| 36> *
| 37>
| 38>                          ****END OF INPUT****

CARTESIAN COORDINATES (ANGSTROEM)
---------------------------------
  O      1.794470    0.923410    2.768350
  H      2.338250    1.359750    3.430940
  H      0.879480    1.303000    2.865760
  O     -1.752130   -0.741530   -2.896280
  H     -2.036450   -0.920500   -1.984040
  H     -0.921210   -1.242140   -2.984230
  O     -0.885520    1.737840    0.052730
  H     -1.032320    2.090180   -0.841890
  H     -1.284090    0.839590    0.017130
  O      0.885520   -1.737840    0.052730
  H      1.284090   -0.839590    0.017130
  H      1.032320   -2.090180   -0.841890
  O     -1.737840   -0.885520   -0.052730
  H     -2.090180   -1.032320    0.841890
  H     -0.839590   -1.284090   -0.017130
  O      1.752130    0.741530   -2.896280
  H      2.036450    0.920500   -1.984040
  H      0.921210    1.242140   -2.984230
  O     -0.741530    1.752130    2.896280
  H     -0.920500    2.036450    1.984040
  H     -1.242140    0.921210    2.984230

 Total Charge           Charge          ....    0
 Multiplicity           Mult            ....    1
 Number of Electrons    NEL             ....   70
 Basis Dimension        Dim             ....  301

ORBITAL ENERGIES
----------------

  NO   OCC          E(Eh)            E(eV)
   0   2.0000     -20.609592      -560.8155
   1   2.0000     -20.601857      -560.6050
   2   2.0000     -20.577275      -559.9361
   3   2.0000     -20.575270      -559.8816
   4   2.0000     -20.572060      -559.7942
   5   2.0000     -20.554505      -559.3165
   6   2.0000     -20.518213      -558.3290
   7   2.0000      -1.398299       -38.0497
   8   2.0000      -1.382251       -37.6130
   9   2.0000      -1.366036       -37.1717
  10   2.0000      -1.356182       -36.9036
  11   2.0000      -1.351770       -36.7835
  12   2.0000      -1.336081       -36.3566
  13   2.0000      -1.300136       -35.3785
  14   2.0000      -0.756799       -20.5936
  15   2.0000      -0.746601       -20.3161
  16   2.0000      -0.732612       -19.9354
  17   2.0000      -0.721117       -19.6226
  18   2.0000      -0.718785       -19.5591
  19   2.0000      -0.706614       -19.2280
  20   2.0000      -0.688098       -18.7241
  21   2.0000      -0.647822       -17.6281
  22   2.0000      -0.622836       -16.9482
  23   2.0000      -0.613578       -16.6963
  24   2.0000      -0.594016       -16.1640
  25   2.0000      -0.590745       -16.0750
  26   2.0000      -0.571473       -15.5506
  27   2.0000      -0.550907       -14.9910
  28   2.0000      -0.546914       -14.8823
  29   2.0000      -0.540712       -14.7135
  30   2.0000      -0.522818       -14.2266
  31   2.0000      -0.520455       -14.1623
  32   2.0000      -0.504319       -13.7232
  33   2.0000      -0.500210       -13.6114
  34   2.0000      -0.468837       -12.7577
  35   0.0000       0.071719         1.9516
  36   0.0000       0.104481         2.8431
  37   0.0000       0.124624         3.3912
  38   0.0000       0.144717         3.9380
  39   0.0000       0.167651         4.5620

MULLIKEN ATOMIC CHARGES
-----------------------
   0 O :   -0.741377
   1 H :    0.325618
   2 H :    0.370502
   3 O :   -0.695292
   4 H :    0.371974
   5 H :    0.323210
   6 O :   -0.732706
   7 H :    0.345654
   8 H :    0.356297
   9 O :   -0.682444
  10 H :    0.372329
  11 H :    0.355621
  12 O :   -0.732978
  13 H :    0.356012
  14 H :    0.372012
  15 O :   -0.679465
  16 H :    0.336519
  17 H :    0.344386
  18 O :   -0.688834
  19 H :    0.390373
  20 H :    0.332590
Sum of atomic charges:   -0.0000000

LOEWDIN ATOMIC CHARGES
----------------------
   0 O :   -0.376963
   1 H :    0.149010
   2 H :    0.142630
   3 O :   -0.335915
   4 H :    0.151380
   5 H :    0.157247
   6 O :   -0.339535
   7 H :    0.165084
   8 H :    0.141282
   9 O :   -0.281274
  10 H :    0.183372
  11 H :    0.171200
  12 O :   -0.294004
  13 H :    0.169130
  14 H :    0.147243
  15 O :   -0.328485
  16 H :    0.162363
  17 H :    0.167084
  18 O :   -0.275072
  19 H :    0.160509
  20 H :    0.163713

  Mayer bond orders larger than 0.100000
B(  0-O ,  1-H ) :   0.8602 B(  0-O ,  2-H ) :   0.7771 B(  3-O ,  4-H ) :   0.8205
B(  3-O ,  5-H ) :   0.8572 B(  6-O ,  7-H ) :   0.8444 B(  6-O ,  8-H ) :   0.7776
B(  9-O , 10-H ) :   0.8181 B(  9-O , 11-H ) :   0.8366 B(  9-O , 14-H ) :   0.1034
B( 12-O , 13-H ) :   0.8363 B( 12-O , 14-H ) :   0.7551 B( 15-O , 16-H ) :   0.8510
B( 15-O , 17-H ) :   0.8442 B( 18-O , 19-H ) :   0.7955 B( 18-O , 20-H ) :   0.8514

MP2 TOTAL ENERGY:     -534.241211938 Eh
FINAL SINGLE POINT ENERGY      -534.241211937691

DIPOLE MOMENT
-------------
                                X             Y             Z
Electronic contribution:     -0.03745      -0.15450      -0.14665
Nuclear contribution   :     -0.42024      -0.22976       0.54442
                        -----------------------------------------
Total Dipole Moment    :     -0.45769      -0.38427       0.39777
                        -----------------------------------------
Magnitude (a.u.)       :      0.71789
Magnitude (Debye)      :      1.82473

Rotational constants in cm-1:     0.040648     0.021049     0.018877
Rotational constants in MHz :  1218.588541   631.036096   565.910820

                             ****ORCA TERMINATED NORMALLY****
TOTAL RUN TIME: 0 days 0 hours 2 minutes 13 seconds 311 msec
