                         Program Version 4.2.0 -  RELEASE  -
|  1> # 12mecn.remya.etal.2.mol5,11
|  2> ! MP2 def2-TZVP EnGrad TightSCF
|  3>
|  4> %pal
|  5>     nprocs 6
|  6> end
|  7>
|  8> %maxcore 8000
|  9>
| 10> %scf
| 11>     ConvForced true
| 12> end
| 13>
| 14> *xyz 0 1
| 15> C  -1.955700000   2.515080000   1.698463000
| 16> H  -2.923830000   2.883163000   2.049269000
| 17> H  -1.154850000   3.171830000   2.050990000
| 18> H  -1.790380000   1.506115000   2.087896000
| 19> C  -1.948230000   2.482156000   0.253672000
| 20> N  -1.937550000   2.462523000  -0.913150000
| 21> C   4.214163000   3.378139000   1.593627000
| 22> H   3.242643000   3.657109000   2.012358000
| 23> H   4.969258000   4.086643000   1.941290000
| 24> H   4.482966000   2.372549000   1.931698000
| 25> C   4.130759000   3.388436000   0.150192000
| 26> N   4.050180000   3.381449000  -1.013420000
| 27> *
| 28>
| 29>                          ****END OF INPUT****

CARTESIAN COORDINATES (ANGSTROEM)
---------------------------------
  C     -1.955700    2.515080    1.698463
  H     -2.923830    2.883163    2.049269
  H     -1.154850    3.171830    2.050990
  H     -1.790380    1.506115    2.087896
  C     -1.948230    2.482156    0.253672
  N     -1.937550    2.462523   -0.913150
  C      4.214163    3.378139    1.593627
  H      3.242643    3.657109    2.012358
  H      4.969258    4.086643    1.941290
  H      4.482966    2.372549    1.931698
  C      4.130759    3.388436    0.150192
  N      4.050180    3.381449   -1.013420

 Total Charge           Charge          ....    0
 Multiplicity           Mult            ....    1
 Number of Electrons    NEL             ....   44
 Basis Dimension        Dim             ....  222

ORBITAL ENERGIES
----------------

  NO   OCC          E(Eh)            E(eV)
   0   2.0000     -15.573375      -423.7731
   1   2.0000     -15.573116      -423.7660
   2   2.0000     -11.287447      -307.1470
   3   2.0000     -11.287331      -307.1439
   4   2.0000     -11.279722      -306.9368
   5   2.0000     -11.279461      -306.9297
   6   2.0000      -1.214532       -33.0491
   7   2.0000      -1.213904       -33.0320
   8   2.0000      -1.045379       -28.4462
   9   2.0000      -1.045322       -28.4446
  10   2.0000      -0.702071       -19.1043
  11   2.0000      -0.701003       -19.0753
  12   2.0000      -0.634881       -17.2760
  13   2.0000      -0.634028       -17.2528
  14   2.0000      -0.632950       -17.2234
  15   2.0000      -0.632820       -17.2199
  16   2.0000      -0.555453       -15.1147
  17   2.0000      -0.555028       -15.1031
  18   2.0000      -0.457720       -12.4552
  19   2.0000      -0.457652       -12.4533
  20   2.0000      -0.457148       -12.4396
  21   2.0000      -0.457006       -12.4358
  22   0.0000       0.100261         2.7282
  23   0.0000       0.126055         3.4301
  24   0.0000       0.158703         4.3185
  25   0.0000       0.169374         4.6089
  26   0.0000       0.170831         4.6486

MULLIKEN ATOMIC CHARGES
-----------------------
   0 C :   -0.279586
   1 H :    0.173023
   2 H :    0.166655
   3 H :    0.171874
   4 C :   -0.145358
   5 N :   -0.086610
   6 C :   -0.280213
   7 H :    0.165718
   8 H :    0.173041
   9 H :    0.172564
  10 C :   -0.145670
  11 N :   -0.085438
Sum of atomic charges:   -0.0000000

LOEWDIN ATOMIC CHARGES
----------------------
   0 C :   -0.285095
   1 H :    0.152606
   2 H :    0.150854
   3 H :    0.152119
   4 C :   -0.220806
   5 N :    0.050322
   6 C :   -0.285145
   7 H :    0.150787
   8 H :    0.151109
   9 H :    0.152756
  10 C :   -0.220344
  11 N :    0.050837

  Mayer bond orders larger than 0.100000
B(  0-C ,  1-H ) :   0.9164 B(  0-C ,  2-H ) :   0.9181 B(  0-C ,  3-H ) :   0.9172
B(  0-C ,  4-C ) :   0.9011 B(  4-C ,  5-N ) :   2.8328 B(  6-C ,  7-H ) :   0.9182
B(  6-C ,  8-H ) :   0.9167 B(  6-C ,  9-H ) :   0.9169 B(  6-C , 10-C ) :   0.9022
B( 10-C , 11-N ) :   2.8329

MP2 TOTAL ENERGY:     -264.965048063 Eh
FINAL SINGLE POINT ENERGY      -264.965048062653

DIPOLE MOMENT
-------------
                                X             Y             Z
Electronic contribution:     -0.16051      -0.04020      -6.28532
Nuclear contribution   :      0.24597       0.06383       9.28476
                        -----------------------------------------
Total Dipole Moment    :      0.08546       0.02362       2.99944
                        -----------------------------------------
Magnitude (a.u.)       :      3.00075
Magnitude (Debye)      :      7.62731

Rotational constants in cm-1:     0.154372     0.021541     0.019041
Rotational constants in MHz :  4627.949547   645.767959   570.828288

                             ****ORCA TERMINATED NORMALLY****
TOTAL RUN TIME: 0 days 0 hours 0 minutes 42 seconds 648 msec
