                         Program Version 4.2.0 -  RELEASE  -
|  1> # 12h2o.su.etal.mol3,6,7,8,10,11
|  2> ! MP2 def2-TZVP EnGrad TightSCF
|  3>
|  4> %pal
|  5>     nprocs 6
|  6> end
|  7>
|  8> %maxcore 8000
|  9>
| 10> %scf
| 11>     ConvForced true
| 12> end
| 13>
| 14> *xyz 0 1
| 15> O  -1.752130000  -0.741530000  -2.896280000
| 16> H  -2.036450000  -0.920500000  -1.984040000
| 17> H  -0.921210000  -1.242140000  -2.984230000
| 18> O   1.737840000   0.885520000  -0.052730000
| 19> H   2.090180000   1.032320000   0.841890000
| 20> H   0.839590000   1.284090000  -0.017130000
| 21> O  -1.737840000  -0.885520000  -0.052730000
| 22> H  -2.090180000  -1.032320000   0.841890000
| 23> H  -0.839590000  -1.284090000  -0.017130000
| 24> O   1.752130000   0.741530000  -2.896280000
| 25> H   2.036450000   0.920500000  -1.984040000
| 26> H   0.921210000   1.242140000  -2.984230000
| 27> O  -0.923410000   1.794470000  -2.768350000
| 28> H  -1.359750000   2.338250000  -3.430940000
| 29> H  -1.303000000   0.879480000  -2.865760000
| 30> O  -0.741530000   1.752130000   2.896280000
| 31> H  -0.920500000   2.036450000   1.984040000
| 32> H  -1.242140000   0.921210000   2.984230000
| 33> *
| 34>
| 35>                          ****END OF INPUT****

CARTESIAN COORDINATES (ANGSTROEM)
---------------------------------
  O     -1.752130   -0.741530   -2.896280
  H     -2.036450   -0.920500   -1.984040
  H     -0.921210   -1.242140   -2.984230
  O      1.737840    0.885520   -0.052730
  H      2.090180    1.032320    0.841890
  H      0.839590    1.284090   -0.017130
  O     -1.737840   -0.885520   -0.052730
  H     -2.090180   -1.032320    0.841890
  H     -0.839590   -1.284090   -0.017130
  O      1.752130    0.741530   -2.896280
  H      2.036450    0.920500   -1.984040
  H      0.921210    1.242140   -2.984230
  O     -0.923410    1.794470   -2.768350
  H     -1.359750    2.338250   -3.430940
  H     -1.303000    0.879480   -2.865760
  O     -0.741530    1.752130    2.896280
  H     -0.920500    2.036450    1.984040
  H     -1.242140    0.921210    2.984230

 Total Charge           Charge          ....    0
 Multiplicity           Mult            ....    1
 Number of Electrons    NEL             ....   60
 Basis Dimension        Dim             ....  258

ORBITAL ENERGIES
----------------

  NO   OCC          E(Eh)            E(eV)
   0   2.0000     -20.613614      -560.9249
   1   2.0000     -20.585472      -560.1592
   2   2.0000     -20.583154      -560.0961
   3   2.0000     -20.575220      -559.8802
   4   2.0000     -20.537560      -558.8554
   5   2.0000     -20.498742      -557.7991
   6   2.0000      -1.392360       -37.8880
   7   2.0000      -1.364428       -37.1280
   8   2.0000      -1.363621       -37.1060
   9   2.0000      -1.361254       -37.0416
  10   2.0000      -1.321233       -35.9526
  11   2.0000      -1.283696       -34.9311
  12   2.0000      -0.755101       -20.5473
  13   2.0000      -0.727332       -19.7917
  14   2.0000      -0.724421       -19.7125
  15   2.0000      -0.722911       -19.6714
  16   2.0000      -0.705285       -19.1918
  17   2.0000      -0.661880       -18.0107
  18   2.0000      -0.637820       -17.3560
  19   2.0000      -0.606156       -16.4944
  20   2.0000      -0.601494       -16.3675
  21   2.0000      -0.596011       -16.2183
  22   2.0000      -0.565367       -15.3844
  23   2.0000      -0.556445       -15.1416
  24   2.0000      -0.533280       -14.5113
  25   2.0000      -0.528992       -14.3946
  26   2.0000      -0.518758       -14.1161
  27   2.0000      -0.509165       -13.8551
  28   2.0000      -0.483626       -13.1601
  29   2.0000      -0.448941       -12.2163
  30   0.0000       0.065665         1.7868
  31   0.0000       0.121650         3.3103
  32   0.0000       0.126637         3.4460
  33   0.0000       0.156342         4.2543
  34   0.0000       0.173890         4.7318

MULLIKEN ATOMIC CHARGES
-----------------------
   0 O :   -0.699605
   1 H :    0.383741
   2 H :    0.355549
   3 O :   -0.697321
   4 H :    0.350678
   5 H :    0.346268
   6 O :   -0.699757
   7 H :    0.347789
   8 H :    0.359700
   9 O :   -0.735865
  10 H :    0.362680
  11 H :    0.347613
  12 O :   -0.743632
  13 H :    0.337360
  14 H :    0.382574
  15 O :   -0.666531
  16 H :    0.338736
  17 H :    0.330022
Sum of atomic charges:   -0.0000000

LOEWDIN ATOMIC CHARGES
----------------------
   0 O :   -0.274819
   1 H :    0.158602
   2 H :    0.173174
   3 O :   -0.317184
   4 H :    0.169693
   5 H :    0.171354
   6 O :   -0.316459
   7 H :    0.169089
   8 H :    0.179811
   9 O :   -0.359517
  10 H :    0.148024
  11 H :    0.141000
  12 O :   -0.343492
  13 H :    0.153839
  14 H :    0.145559
  15 O :   -0.325233
  16 H :    0.163611
  17 H :    0.162947

  Mayer bond orders larger than 0.100000
B(  0-O ,  1-H ) :   0.8063 B(  0-O ,  2-H ) :   0.8345 B(  3-O ,  4-H ) :   0.8403
B(  3-O ,  5-H ) :   0.8352 B(  6-O ,  7-H ) :   0.8426 B(  6-O ,  8-H ) :   0.8295
B(  9-O , 10-H ) :   0.8305 B(  9-O , 11-H ) :   0.8175 B( 12-O , 13-H ) :   0.8506
B( 12-O , 14-H ) :   0.7581 B( 15-O , 16-H ) :   0.8503 B( 15-O , 17-H ) :   0.8561

MP2 TOTAL ENERGY:     -457.914980637 Eh
FINAL SINGLE POINT ENERGY      -457.914980637140

DIPOLE MOMENT
-------------
                                X             Y             Z
Electronic contribution:     -0.07087      -0.12032       0.04849
Nuclear contribution   :     -1.24480      -0.76395       1.60207
                        -----------------------------------------
Total Dipole Moment    :     -1.31568      -0.88427       1.65056
                        -----------------------------------------
Magnitude (a.u.)       :      2.28851
Magnitude (Debye)      :      5.81693

Rotational constants in cm-1:     0.047701     0.028795     0.022024
Rotational constants in MHz :  1430.041081   863.239626   660.268404

                             ****ORCA TERMINATED NORMALLY****
TOTAL RUN TIME: 0 days 0 hours 1 minutes 10 seconds 148 msec
