                         Program Version 4.2.0 -  RELEASE  -
|  1> # 12meoh.boyd.etal.mol2,3,7
|  2> ! MP2 def2-TZVP EnGrad TightSCF
|  3>
|  4> %pal
|  5>     nprocs 6
|  6> end
|  7>
|  8> %maxcore 8000
|  9>
| 10> %scf
| 11>     ConvForced true
| 12> end
| 13>
| 14> *xyz 0 1
| 15> O  -3.839777402   2.233595098   0.660436763
| 16> H  -2.958345897   1.907036203   0.973588449
| 17> C  -3.600368059   3.168790682  -0.390480452
| 18> H  -4.551709193   3.344148967  -0.901254863
| 19> H  -2.868237594   2.789240199  -1.113617525
| 20> H  -3.243594915   4.128998607   0.009549480
| 21> O  -3.821405976  -2.118091637   0.596795346
| 22> H  -4.342989117  -1.344303030   0.251966383
| 23> C  -3.443883586  -1.809641231   1.934889393
| 24> H  -2.831494349  -2.637429600   2.305201764
| 25> H  -4.325601146  -1.719364371   2.585074667
| 26> H  -2.858527126  -0.882644791   1.996110694
| 27> O   4.310535586  -1.588322800   0.656128299
| 28> H   3.804372199  -1.630404735  -0.196849819
| 29> C   4.312298137  -2.894980854   1.222112691
| 30> H   4.713177833  -2.819907076   2.237066773
| 31> H   4.957796734  -3.574699304   0.648211180
| 32> H   3.302735989  -3.324433205   1.269756773
| 33> *
| 34>
| 35>                          ****END OF INPUT****

CARTESIAN COORDINATES (ANGSTROEM)
---------------------------------
  O     -3.839777    2.233595    0.660437
  H     -2.958346    1.907036    0.973588
  C     -3.600368    3.168791   -0.390480
  H     -4.551709    3.344149   -0.901255
  H     -2.868238    2.789240   -1.113618
  H     -3.243595    4.128999    0.009549
  O     -3.821406   -2.118092    0.596795
  H     -4.342989   -1.344303    0.251966
  C     -3.443884   -1.809641    1.934889
  H     -2.831494   -2.637430    2.305202
  H     -4.325601   -1.719364    2.585075
  H     -2.858527   -0.882645    1.996111
  O      4.310536   -1.588323    0.656128
  H      3.804372   -1.630405   -0.196850
  C      4.312298   -2.894981    1.222113
  H      4.713178   -2.819907    2.237067
  H      4.957797   -3.574699    0.648211
  H      3.302736   -3.324433    1.269757

 Total Charge           Charge          ....    0
 Multiplicity           Mult            ....    1
 Number of Electrons    NEL             ....   54
 Basis Dimension        Dim             ....  258

ORBITAL ENERGIES
----------------

  NO   OCC          E(Eh)            E(eV)
   0   2.0000     -20.565568      -559.6175
   1   2.0000     -20.558207      -559.4172
   2   2.0000     -20.554613      -559.3195
   3   2.0000     -11.277919      -306.8878
   4   2.0000     -11.272239      -306.7332
   5   2.0000     -11.270239      -306.6788
   6   2.0000      -1.354727       -36.8640
   7   2.0000      -1.347892       -36.6780
   8   2.0000      -1.343858       -36.5682
   9   2.0000      -0.926219       -25.2037
  10   2.0000      -0.920204       -25.0400
  11   2.0000      -0.917279       -24.9604
  12   2.0000      -0.689380       -18.7590
  13   2.0000      -0.682611       -18.5748
  14   2.0000      -0.678449       -18.4615
  15   2.0000      -0.623538       -16.9673
  16   2.0000      -0.617653       -16.8072
  17   2.0000      -0.615636       -16.7523
  18   2.0000      -0.597417       -16.2565
  19   2.0000      -0.591586       -16.0979
  20   2.0000      -0.587857       -15.9964
  21   2.0000      -0.508983       -13.8501
  22   2.0000      -0.501669       -13.6511
  23   2.0000      -0.498597       -13.5675
  24   2.0000      -0.456868       -12.4320
  25   2.0000      -0.449852       -12.2411
  26   2.0000      -0.447136       -12.1672
  27   0.0000       0.113487         3.0881
  28   0.0000       0.134303         3.6546
  29   0.0000       0.154992         4.2176
  30   0.0000       0.169029         4.5995
  31   0.0000       0.175495         4.7755

MULLIKEN ATOMIC CHARGES
-----------------------
   0 O :   -0.502358
   1 H :    0.324204
   2 C :   -0.177920
   3 H :    0.130709
   4 H :    0.114936
   5 H :    0.114164
   6 O :   -0.502405
   7 H :    0.327412
   8 C :   -0.160049
   9 H :    0.127349
  10 H :    0.113676
  11 H :    0.090283
  12 O :   -0.497225
  13 H :    0.321610
  14 C :   -0.174639
  15 H :    0.128922
  16 H :    0.109830
  17 H :    0.111502
Sum of atomic charges:    0.0000000

LOEWDIN ATOMIC CHARGES
----------------------
   0 O :   -0.112902
   1 H :    0.187706
   2 C :   -0.376895
   3 H :    0.110250
   4 H :    0.097022
   5 H :    0.097383
   6 O :   -0.111051
   7 H :    0.192528
   8 C :   -0.381061
   9 H :    0.109268
  10 H :    0.097515
  11 H :    0.090235
  12 O :   -0.109800
  13 H :    0.189492
  14 C :   -0.381250
  15 H :    0.109942
  16 H :    0.095610
  17 H :    0.096006

  Mayer bond orders larger than 0.100000
B(  0-O ,  1-H ) :   0.8412 B(  0-O ,  2-C ) :   0.9195 B(  2-C ,  3-H ) :   0.9379
B(  2-C ,  4-H ) :   0.9408 B(  2-C ,  5-H ) :   0.9382 B(  6-O ,  7-H ) :   0.8381
B(  6-O ,  8-C ) :   0.9301 B(  8-C ,  9-H ) :   0.9382 B(  8-C , 10-H ) :   0.9416
B(  8-C , 11-H ) :   0.9378 B( 12-O , 13-H ) :   0.8430 B( 12-O , 14-C ) :   0.9258
B( 14-C , 15-H ) :   0.9377 B( 14-C , 16-H ) :   0.9383 B( 14-C , 17-H ) :   0.9401

MP2 TOTAL ENERGY:     -346.522098238 Eh
FINAL SINGLE POINT ENERGY      -346.522098238197

DIPOLE MOMENT
-------------
                                X             Y             Z
Electronic contribution:     -0.79409       0.06212      -0.99570
Nuclear contribution   :      0.92963       0.19351       0.77161
                        -----------------------------------------
Total Dipole Moment    :      0.13555       0.25562      -0.22409
                        -----------------------------------------
Magnitude (a.u.)       :      0.36597
Magnitude (Debye)      :      0.93021

Rotational constants in cm-1:     0.045015     0.010620     0.008841
Rotational constants in MHz :  1349.507961   318.383521   265.055435

                             ****ORCA TERMINATED NORMALLY****
TOTAL RUN TIME: 0 days 0 hours 0 minutes 52 seconds 149 msec
