   * xtb version 6.3.3 (5b13467) compiled by 'ehlert@majestix' on 2020-09-17
          program call               : /ihome/jkeith/amm503/codes/xtb-6.3.3/bin/xtb ./10meoh.abc0.iter1.xyz --opt vtight --gfn 2 --charge 0
          number of atoms            :                    60
          number of electrons        :                   140
          charge                     :                     0
          spin                       :                   0.0

   ID    Z sym.   atoms
    1    8 O      1, 7, 13, 19, 25, 31, 37, 43, 49, 55
    2    1 H      2, 4-6, 8, 10-12, 14, 16-18, 20, 22-24, 26, 28-30, 32,
                  34-36, 38, 40-42, 44, 46-48, 50, 52-54, 56, 58-60
    3    6 C      3, 9, 15, 21, 27, 33, 39, 45, 51, 57

          :  Hamiltonian                  GFN2-xTB          :
 * total energy  :   -82.3667892 Eh     change       -0.2619203E-09 Eh
 * total energy  :   -82.3710127 Eh     change       -0.4223490E-02 Eh
 * total energy  :   -82.3721791 Eh     change       -0.1166351E-02 Eh
 * total energy  :   -82.3730272 Eh     change       -0.8481535E-03 Eh
 * total energy  :   -82.3737059 Eh     change       -0.6787015E-03 Eh
 * total energy  :   -82.3741178 Eh     change       -0.4118915E-03 Eh
 * total energy  :   -82.3743921 Eh     change       -0.2742386E-03 Eh
 * total energy  :   -82.3746097 Eh     change       -0.2175883E-03 Eh
 * total energy  :   -82.3748216 Eh     change       -0.2119742E-03 Eh
 * total energy  :   -82.3750188 Eh     change       -0.1972152E-03 Eh
 * total energy  :   -82.3758203 Eh     change        0.1785808E-05 Eh
 * total energy  :   -82.3758233 Eh     change       -0.2977224E-05 Eh
 * total energy  :   -82.3758209 Eh     change        0.2358625E-05 Eh
 * total energy  :   -82.3758236 Eh     change       -0.2693199E-05 Eh
 * total energy  :   -82.3758215 Eh     change        0.2087038E-05 Eh
 * total energy  :   -82.3758239 Eh     change       -0.2381978E-05 Eh
 * total energy  :   -82.3758220 Eh     change        0.1855714E-05 Eh
 * total energy  :   -82.3758242 Eh     change       -0.2141912E-05 Eh
 * total energy  :   -82.3758242 Eh     change       -0.1636131E-07 Eh
   *** GEOMETRY OPTIMIZATION CONVERGED AFTER 68 ITERATIONS ***

 final structure:
================
60
 xtb: 6.3.3 (5b13467)
O        -0.35372537046656   -1.55742914538822   -3.43873898533522
H        -0.77054746370345   -0.67481894416877   -3.36158370950852
C        -1.36782976719768   -2.51346184764240   -3.63489620752042
H        -0.88583960272763   -3.48888875024830   -3.69903914597396
H        -1.91130501705040   -2.32676464377322   -4.56539272039355
H        -2.07920752787627   -2.52024427297167   -2.80376289031959
O        -1.50717600317987    0.89186659053946   -3.03755301532389
H        -0.90114334928859    1.38172650329464   -2.44713954825336
C        -2.80844254796540    1.42397502186554   -2.90014717736767
H        -3.46237478859828    0.83590377777860   -3.54382094353417
H        -2.83923022342673    2.46800057004615   -3.22464720183547
H        -3.16685952781365    1.35953584966661   -1.86952749820682
O         0.32701498574934   -1.83074361568425    2.67894516092191
H         1.08226730657726   -1.84225032702774    2.03868064568821
C         0.35525245804351   -3.02161932433189    3.43188309922141
H        -0.49790010996036   -2.99764219854958    4.10938374894375
H         1.27627135230651   -3.09527436196790    4.01606315181130
H         0.27315660080828   -3.89777338595336    2.78408480034338
O         0.41195193639990    2.06815991974231   -1.42647703515712
H         0.51683268689264    1.98741041446607   -0.45877414505371
C         1.63537093377902    1.70740950771964   -2.03020617620096
H         1.51527222346822    1.84394183554609   -3.10392620589583
H         1.88398040934587    0.66197494996907   -1.82902013187061
H         2.45144888087527    2.34530741387532   -1.67892859770604
O         1.81415509852978   -1.74694305163129   -1.79048741957870
H         0.98730516783019   -1.69170322160241   -2.31633957535561
C         2.76048096149426   -2.46055200996891   -2.55175050071197
H         3.69333140787505   -2.47304506291340   -1.98850356437433
H         2.93201961633408   -1.97864309605238   -3.51746471416271
H         2.43554877859480   -3.49150584077962   -2.72219045889725
O        -3.33353973943351    1.52003059451120    0.49703763899517
H        -2.81020656301166    0.74279539644330    0.75404603274204
C        -2.56280198311464    2.67403546687930    0.71722260190285
H        -3.18293342955581    3.52642849371122    0.43976194055902
H        -1.65763477724226    2.67967351376012    0.10154347492931
H        -2.27920334546072    2.77422748123194    1.77049235281174
O         0.07992211609610    0.76681474808935    3.58740713426980
H         0.21835085555873   -0.17843306013675    3.38309143227495
C        -1.23826632751450    0.93102006685759    4.06268450088218
H        -1.37335459409425    1.99182018798725    4.27118810898420
H        -1.39534797615795    0.36907054430940    4.98775856413093
H        -1.97301927146853    0.60965216713914    3.31980410848581
O        -1.69017247298691   -0.75073107458126    1.07130135838818
H        -1.10482523401049   -1.14892639445180    1.73804173908610
C        -1.12693288776297   -1.01639385116441   -0.19556063246294
H        -1.82412600467186   -0.64096965739409   -0.94079880610661
H        -0.98324373506073   -2.08968702235394   -0.34651824291125
H        -0.16655811847558   -0.50845403473462   -0.31414999507573
O         0.95803722792950    1.98180993156969    1.29420951575828
H         0.55069592607736    1.53153911293852    2.06542621466866
C         1.32624562228137    3.27775350045134    1.70378523674948
H         1.83752464624772    3.75367067894026    0.86759072401777
H         2.00227298584383    3.24105663524504    2.56192777217672
H         0.44728119660766    3.87455747543314    1.96660844363100
O         2.34835483492761   -1.80893151291101    0.91547584356181
H         2.08342621967783   -1.84429000906455   -0.02575218514038
C         3.11009958489335   -0.63241461545722    1.10756108294921
H         3.46318782076945   -0.64289001918167    2.13811750864699
H         2.50433617380804    0.26235528761747    0.94463670405507
H         3.97235174365490   -0.61209928553557    0.43733675864835

          :  Hamiltonian                  GFN2-xTB          :
         :: total energy             -82.375824204859 Eh    ::
         :: gradient norm              0.000047414214 Eh/a0 ::
         :: HOMO-LUMO gap             10.274886947087 eV    ::
         :: SCC energy               -83.090538762143 Eh    ::
         :: -> dispersion             -0.041080336115 Eh    ::
         :: repulsion energy           0.712461408931 Eh    ::

    * Orbital Energies and Occupations

         #    Occupation            Energy/Eh            Energy/eV
      -------------------------------------------------------------
         1        2.0000           -0.6994677             -19.0335
       ...           ...                  ...                  ...
        58        2.0000           -0.4420705             -12.0293
        59        2.0000           -0.4340764             -11.8118
        60        2.0000           -0.4302270             -11.7071
        61        2.0000           -0.4224390             -11.4951
        62        2.0000           -0.4185700             -11.3899
        63        2.0000           -0.4157116             -11.3121
        64        2.0000           -0.4134423             -11.2503
        65        2.0000           -0.4101553             -11.1609
        66        2.0000           -0.4078326             -11.0977
        67        2.0000           -0.4036847             -10.9848
        68        2.0000           -0.4018153             -10.9339
        69        2.0000           -0.3996714             -10.8756
        70        2.0000           -0.3859673             -10.5027 (HOMO)
        71                         -0.0083721              -0.2278 (LUMO)
        72                          0.0150715               0.4101
        73                          0.0307573               0.8369
        74                          0.0540693               1.4713
        75                          0.0635068               1.7281
        76                          0.0710623               1.9337
        77                          0.0827293               2.2512
        78                          0.0896426               2.4393
        79                          0.0952474               2.5918
        80                          0.1044516               2.8423
        81                          0.1220854               3.3221
       ...                                ...                  ...
       120                          0.3474568               9.4548
      -------------------------------------------------------------
                  HL-Gap            0.3775951 Eh           10.2749 eV

     #   Z          covCN         q      C6AA      Î±(0)
     1   8 O        1.653    -0.473    22.323     6.378
     2   1 H        0.803     0.334     0.627     1.244
     3   6 C        3.623     0.039    20.351     6.502
     4   1 H        0.925     0.044     2.399     2.422
     5   1 H        0.924     0.031     2.569     2.507
     6   1 H        0.924     0.029     2.596     2.520
     7   8 O        1.653    -0.484    22.546     6.410
     8   1 H        0.803     0.330     0.638     1.255
     9   6 C        3.623     0.035    20.431     6.515
    10   1 H        0.925     0.039     2.463     2.454
    11   1 H        0.924     0.026     2.647     2.544
    12   1 H        0.924     0.052     2.294     2.369
    13   8 O        1.651    -0.487    22.623     6.421
    14   1 H        0.801     0.342     0.608     1.225
    15   6 C        3.623     0.039    20.349     6.502
    16   1 H        0.925     0.047     2.361     2.403
    17   1 H        0.924     0.032     2.559     2.502
    18   1 H        0.924     0.033     2.543     2.494
    19   8 O        1.653    -0.476    22.384     6.387
    20   1 H        0.803     0.328     0.643     1.259
    21   6 C        3.623     0.030    20.499     6.526
    22   1 H        0.925     0.048     2.348     2.396
    23   1 H        0.924     0.044     2.397     2.421
    24   1 H        0.924     0.024     2.668     2.555
    25   8 O        1.653    -0.481    22.480     6.400
    26   1 H        0.803     0.334     0.628     1.245
    27   6 C        3.623     0.040    20.342     6.501
    28   1 H        0.925     0.045     2.389     2.417
    29   1 H        0.924     0.032     2.557     2.501
    30   1 H        0.924     0.027     2.629     2.536
    31   8 O        1.654    -0.466    22.178     6.357
    32   1 H        0.804     0.319     0.667     1.283
    33   6 C        3.623     0.040    20.332     6.499
    34   1 H        0.925     0.040     2.446     2.446
    35   1 H        0.924     0.035     2.512     2.479
    36   1 H        0.924     0.018     2.765     2.600
    37   8 O        1.653    -0.469    22.246     6.367
    38   1 H        0.803     0.324     0.652     1.269
    39   6 C        3.623     0.035    20.424     6.514
    40   1 H        0.925     0.046     2.370     2.408
    41   1 H        0.924     0.027     2.630     2.536
    42   1 H        0.924     0.045     2.389     2.417
    43   8 O        1.654    -0.479    22.436     6.394
    44   1 H        0.804     0.317     0.671     1.287
    45   6 C        3.623     0.027    20.556     6.535
    46   1 H        0.925     0.062     2.176     2.307
    47   1 H        0.924     0.025     2.657     2.549
    48   1 H        0.924     0.041     2.437     2.441
    49   8 O        1.653    -0.479    22.455     6.397
    50   1 H        0.803     0.333     0.631     1.248
    51   6 C        3.623     0.039    20.347     6.501
    52   1 H        0.925     0.045     2.385     2.415
    53   1 H        0.924     0.030     2.587     2.515
    54   1 H        0.924     0.027     2.630     2.536
    55   8 O        1.653    -0.473    22.318     6.377
    56   1 H        0.803     0.333     0.630     1.247
    57   6 C        3.623     0.027    20.561     6.536
    58   1 H        0.925     0.046     2.368     2.406
    59   1 H        0.924     0.053     2.284     2.363
    60   1 H        0.924     0.030     2.591     2.517

Wiberg/Mayer (AO) data.
largest (>0.10) Wiberg bond orders for each atom

     #   Z sym  total        # sym  WBO       # sym  WBO       # sym  WBO
 ---------------------------------------------------------------------------
     1   8 O    1.971 --     3 C    1.006     2 H    0.830
     2   1 H    0.888 --     1 O    0.830
     3   6 C    3.958 --     1 O    1.006     4 H    0.985     5 H    0.981
                             6 H    0.980
     4   1 H    0.998 --     3 C    0.985
     5   1 H    0.999 --     3 C    0.981
     6   1 H    0.999 --     3 C    0.980
     7   8 O    1.957 --     9 C    0.997     8 H    0.836
     8   1 H    0.891 --     7 O    0.836
     9   6 C    3.952 --     7 O    0.997    10 H    0.985    11 H    0.982
                            12 H    0.974
    10   1 H    0.998 --     9 C    0.985
    11   1 H    0.999 --     9 C    0.982
    12   1 H    0.997 --     9 C    0.974
    13   8 O    1.983 --    15 C    0.999    14 H    0.801
    14   1 H    0.883 --    13 O    0.801
    15   6 C    3.955 --    13 O    0.999    16 H    0.985    18 H    0.982
                            17 H    0.982
    16   1 H    0.998 --    15 C    0.985
    17   1 H    0.999 --    15 C    0.982
    18   1 H    0.999 --    15 C    0.982
    19   8 O    1.962 --    21 C    1.004    20 H    0.835
    20   1 H    0.892 --    19 O    0.835
    21   6 C    3.955 --    19 O    1.004    22 H    0.984    24 H    0.982
                            23 H    0.975
    22   1 H    0.998 --    21 C    0.984
    23   1 H    0.998 --    21 C    0.975
    24   1 H    0.999 --    21 C    0.982
    25   8 O    1.960 --    27 C    1.006    26 H    0.820
    26   1 H    0.889 --    25 O    0.820
    27   6 C    3.958 --    25 O    1.006    28 H    0.984    29 H    0.982
                            30 H    0.981
    28   1 H    0.998 --    27 C    0.984
    29   1 H    0.999 --    27 C    0.982
    30   1 H    0.999 --    27 C    0.981
    31   8 O    1.941 --    33 C    1.015    32 H    0.860
    32   1 H    0.898 --    31 O    0.860
    33   6 C    3.961 --    31 O    1.015    34 H    0.985    36 H    0.979
                            35 H    0.976
    34   1 H    0.998 --    33 C    0.985
    35   1 H    0.999 --    33 C    0.976
    36   1 H    1.000 --    33 C    0.979
    37   8 O    1.979 --    39 C    1.003    38 H    0.839
    38   1 H    0.895 --    37 O    0.839
    39   6 C    3.954 --    37 O    1.003    40 H    0.984    41 H    0.982
                            42 H    0.978
    40   1 H    0.998 --    39 C    0.984
    41   1 H    0.999 --    39 C    0.982
    42   1 H    0.998 --    39 C    0.978
    43   8 O    1.946 --    45 C    1.003    44 H    0.847
    44   1 H    0.899 --    43 O    0.847
    45   6 C    3.952 --    43 O    1.003    47 H    0.982    46 H    0.979
                            48 H    0.977
    46   1 H    0.996 --    45 C    0.979
    47   1 H    0.999 --    45 C    0.982
    48   1 H    0.998 --    45 C    0.977
    49   8 O    1.960 --    51 C    1.008    50 H    0.821
    50   1 H    0.889 --    49 O    0.821
    51   6 C    3.959 --    49 O    1.008    52 H    0.984    53 H    0.982
                            54 H    0.981
    52   1 H    0.998 --    51 C    0.984
    53   1 H    0.999 --    51 C    0.982
    54   1 H    0.999 --    51 C    0.981
    55   8 O    1.989 --    57 C    0.999    56 H    0.832
    56   1 H    0.889 --    55 O    0.832
    57   6 C    3.950 --    55 O    0.999    58 H    0.985    60 H    0.983
                            59 H    0.974
    58   1 H    0.998 --    57 C    0.985
    59   1 H    0.997 --    57 C    0.974
    60   1 H    0.999 --    57 C    0.983
 ---------------------------------------------------------------------------

molecular dipole:
                 x           y           z       tot (Debye)
 q only:        0.869      -0.565       0.372
   full:        1.160      -0.743       0.534       3.755

           -------------------------------------------------
          | TOTAL ENERGY              -82.375824204859 Eh   |
          | GRADIENT NORM               0.000047414214 Eh/Î± |
          | HOMO-LUMO GAP              10.274886947087 eV   |
           -------------------------------------------------

 * finished run on 2021/01/12 at 15:00:04.106
normal termination of xtb
