                         Program Version 4.2.0 -  RELEASE  -
|  1> # 12h2o.su.etal.mol2,4,11
|  2> ! MP2 def2-TZVP EnGrad TightSCF
|  3>
|  4> %pal
|  5>     nprocs 6
|  6> end
|  7>
|  8> %maxcore 8000
|  9>
| 10> %scf
| 11>     ConvForced true
| 12> end
| 13>
| 14> *xyz 0 1
| 15> O   0.923410000  -1.794470000  -2.768350000
| 16> H   1.359750000  -2.338250000  -3.430940000
| 17> H   1.303000000  -0.879480000  -2.865760000
| 18> O  -0.885520000   1.737840000   0.052730000
| 19> H  -1.032320000   2.090180000  -0.841890000
| 20> H  -1.284090000   0.839590000   0.017130000
| 21> O  -0.741530000   1.752130000   2.896280000
| 22> H  -0.920500000   2.036450000   1.984040000
| 23> H  -1.242140000   0.921210000   2.984230000
| 24> *
| 25>
| 26>                          ****END OF INPUT****

CARTESIAN COORDINATES (ANGSTROEM)
---------------------------------
  O      0.923410   -1.794470   -2.768350
  H      1.359750   -2.338250   -3.430940
  H      1.303000   -0.879480   -2.865760
  O     -0.885520    1.737840    0.052730
  H     -1.032320    2.090180   -0.841890
  H     -1.284090    0.839590    0.017130
  O     -0.741530    1.752130    2.896280
  H     -0.920500    2.036450    1.984040
  H     -1.242140    0.921210    2.984230

 Total Charge           Charge          ....    0
 Multiplicity           Mult            ....    1
 Number of Electrons    NEL             ....   30
 Basis Dimension        Dim             ....  129

ORBITAL ENERGIES
----------------

  NO   OCC          E(Eh)            E(eV)
   0   2.0000     -20.588366      -560.2379
   1   2.0000     -20.570642      -559.7556
   2   2.0000     -20.529374      -558.6327
   3   2.0000      -1.366722       -37.1904
   4   2.0000      -1.345984       -36.6261
   5   2.0000      -1.311210       -35.6798
   6   2.0000      -0.729324       -19.8459
   7   2.0000      -0.714481       -19.4420
   8   2.0000      -0.680914       -18.5286
   9   2.0000      -0.607399       -16.5282
  10   2.0000      -0.582209       -15.8427
  11   2.0000      -0.549061       -14.9407
  12   2.0000      -0.529033       -14.3957
  13   2.0000      -0.513876       -13.9833
  14   2.0000      -0.475673       -12.9437
  15   0.0000       0.098309         2.6751
  16   0.0000       0.126688         3.4473
  17   0.0000       0.161004         4.3811
  18   0.0000       0.193433         5.2636
  19   0.0000       0.200236         5.4487

MULLIKEN ATOMIC CHARGES
-----------------------
   0 O :   -0.684767
   1 H :    0.341962
   2 H :    0.342627
   3 O :   -0.689830
   4 H :    0.348440
   5 H :    0.347754
   6 O :   -0.691642
   7 H :    0.368478
   8 H :    0.316978
Sum of atomic charges:   -0.0000000

LOEWDIN ATOMIC CHARGES
----------------------
   0 O :   -0.340094
   1 H :    0.159285
   2 H :    0.180649
   3 O :   -0.317636
   4 H :    0.170353
   5 H :    0.176540
   6 O :   -0.338763
   7 H :    0.152620
   8 H :    0.157046

  Mayer bond orders larger than 0.100000
B(  0-O ,  1-H ) :   0.8516 B(  0-O ,  2-H ) :   0.8456 B(  3-O ,  4-H ) :   0.8433
B(  3-O ,  5-H ) :   0.8405 B(  6-O ,  7-H ) :   0.8225 B(  6-O ,  8-H ) :   0.8644

MP2 TOTAL ENERGY:     -228.943547484 Eh
FINAL SINGLE POINT ENERGY      -228.943547483665

DIPOLE MOMENT
-------------
                                X             Y             Z
Electronic contribution:      0.08783       0.11095       0.15321
Nuclear contribution   :     -0.34045      -0.60038      -2.09298
                        -----------------------------------------
Total Dipole Moment    :     -0.25263      -0.48944      -1.93977
                        -----------------------------------------
Magnitude (a.u.)       :      2.01645
Magnitude (Debye)      :      5.12541

Rotational constants in cm-1:     0.469345     0.037790     0.035247
Rotational constants in MHz : 14070.608682  1132.907679  1056.690853

                             ****ORCA TERMINATED NORMALLY****
TOTAL RUN TIME: 0 days 0 hours 0 minutes 27 seconds 891 msec
