                         Program Version 4.2.0 -  RELEASE  -
|  1> # 12h2o.su.etal.mol2,3,4,6,7,8,11
|  2> ! MP2 def2-TZVP EnGrad TightSCF
|  3>
|  4> %pal
|  5>     nprocs 6
|  6> end
|  7>
|  8> %maxcore 8000
|  9>
| 10> %scf
| 11>     ConvForced true
| 12> end
| 13>
| 14> *xyz 0 1
| 15> O   0.923410000  -1.794470000  -2.768350000
| 16> H   1.359750000  -2.338250000  -3.430940000
| 17> H   1.303000000  -0.879480000  -2.865760000
| 18> O  -1.752130000  -0.741530000  -2.896280000
| 19> H  -2.036450000  -0.920500000  -1.984040000
| 20> H  -0.921210000  -1.242140000  -2.984230000
| 21> O  -0.885520000   1.737840000   0.052730000
| 22> H  -1.032320000   2.090180000  -0.841890000
| 23> H  -1.284090000   0.839590000   0.017130000
| 24> O   1.737840000   0.885520000  -0.052730000
| 25> H   2.090180000   1.032320000   0.841890000
| 26> H   0.839590000   1.284090000  -0.017130000
| 27> O  -1.737840000  -0.885520000  -0.052730000
| 28> H  -2.090180000  -1.032320000   0.841890000
| 29> H  -0.839590000  -1.284090000  -0.017130000
| 30> O   1.752130000   0.741530000  -2.896280000
| 31> H   2.036450000   0.920500000  -1.984040000
| 32> H   0.921210000   1.242140000  -2.984230000
| 33> O  -0.741530000   1.752130000   2.896280000
| 34> H  -0.920500000   2.036450000   1.984040000
| 35> H  -1.242140000   0.921210000   2.984230000
| 36> *
| 37>
| 38>                          ****END OF INPUT****

CARTESIAN COORDINATES (ANGSTROEM)
---------------------------------
  O      0.923410   -1.794470   -2.768350
  H      1.359750   -2.338250   -3.430940
  H      1.303000   -0.879480   -2.865760
  O     -1.752130   -0.741530   -2.896280
  H     -2.036450   -0.920500   -1.984040
  H     -0.921210   -1.242140   -2.984230
  O     -0.885520    1.737840    0.052730
  H     -1.032320    2.090180   -0.841890
  H     -1.284090    0.839590    0.017130
  O      1.737840    0.885520   -0.052730
  H      2.090180    1.032320    0.841890
  H      0.839590    1.284090   -0.017130
  O     -1.737840   -0.885520   -0.052730
  H     -2.090180   -1.032320    0.841890
  H     -0.839590   -1.284090   -0.017130
  O      1.752130    0.741530   -2.896280
  H      2.036450    0.920500   -1.984040
  H      0.921210    1.242140   -2.984230
  O     -0.741530    1.752130    2.896280
  H     -0.920500    2.036450    1.984040
  H     -1.242140    0.921210    2.984230

 Total Charge           Charge          ....    0
 Multiplicity           Mult            ....    1
 Number of Electrons    NEL             ....   70
 Basis Dimension        Dim             ....  301

ORBITAL ENERGIES
----------------

  NO   OCC          E(Eh)            E(eV)
   0   2.0000     -20.630668      -561.3890
   1   2.0000     -20.600102      -560.5573
   2   2.0000     -20.572861      -559.8160
   3   2.0000     -20.564843      -559.5978
   4   2.0000     -20.556917      -559.3822
   5   2.0000     -20.540897      -558.9462
   6   2.0000     -20.520516      -558.3916
   7   2.0000      -1.414913       -38.5017
   8   2.0000      -1.387365       -37.7521
   9   2.0000      -1.364073       -37.1183
  10   2.0000      -1.345677       -36.6177
  11   2.0000      -1.338457       -36.4213
  12   2.0000      -1.324793       -36.0494
  13   2.0000      -1.304655       -35.5015
  14   2.0000      -0.770544       -20.9676
  15   2.0000      -0.756447       -20.5840
  16   2.0000      -0.727642       -19.8001
  17   2.0000      -0.717056       -19.5121
  18   2.0000      -0.709090       -19.2953
  19   2.0000      -0.708139       -19.2695
  20   2.0000      -0.688578       -18.7372
  21   2.0000      -0.651638       -17.7320
  22   2.0000      -0.631183       -17.1754
  23   2.0000      -0.616170       -16.7668
  24   2.0000      -0.592364       -16.1191
  25   2.0000      -0.577333       -15.7100
  26   2.0000      -0.570963       -15.5367
  27   2.0000      -0.560699       -15.2574
  28   2.0000      -0.541201       -14.7268
  29   2.0000      -0.537712       -14.6319
  30   2.0000      -0.515872       -14.0376
  31   2.0000      -0.508335       -13.8325
  32   2.0000      -0.502831       -13.6827
  33   2.0000      -0.489259       -13.3134
  34   2.0000      -0.470166       -12.7939
  35   0.0000       0.072422         1.9707
  36   0.0000       0.111588         3.0365
  37   0.0000       0.146353         3.9825
  38   0.0000       0.152185         4.1412
  39   0.0000       0.168869         4.5952

MULLIKEN ATOMIC CHARGES
-----------------------
   0 O :   -0.746342
   1 H :    0.339212
   2 H :    0.385756
   3 O :   -0.732129
   4 H :    0.358098
   5 H :    0.354313
   6 O :   -0.734511
   7 H :    0.364168
   8 H :    0.369900
   9 O :   -0.736209
  10 H :    0.352630
  11 H :    0.355645
  12 O :   -0.714083
  13 H :    0.361714
  14 H :    0.387069
  15 O :   -0.698656
  16 H :    0.391855
  17 H :    0.342072
  18 O :   -0.685705
  19 H :    0.373861
  20 H :    0.311342
Sum of atomic charges:   -0.0000000

LOEWDIN ATOMIC CHARGES
----------------------
   0 O :   -0.343613
   1 H :    0.154865
   2 H :    0.146300
   3 O :   -0.355446
   4 H :    0.144316
   5 H :    0.143975
   6 O :   -0.292573
   7 H :    0.172297
   8 H :    0.146031
   9 O :   -0.341920
  10 H :    0.169503
  11 H :    0.140755
  12 O :   -0.272319
  13 H :    0.173353
  14 H :    0.190471
  15 O :   -0.275230
  16 H :    0.160939
  17 H :    0.166313
  18 O :   -0.334323
  19 H :    0.152076
  20 H :    0.154228

  Mayer bond orders larger than 0.100000
B(  0-O ,  1-H ) :   0.8495 B(  0-O ,  2-H ) :   0.7536 B(  3-O ,  4-H ) :   0.8379
B(  3-O ,  5-H ) :   0.8079 B(  6-O ,  7-H ) :   0.8304 B(  6-O ,  8-H ) :   0.7665
B(  9-O , 10-H ) :   0.8408 B(  9-O , 11-H ) :   0.7807 B( 12-O , 13-H ) :   0.8311
B( 12-O , 14-H ) :   0.8077 B( 15-O , 16-H ) :   0.7931 B( 15-O , 17-H ) :   0.8430
B( 18-O , 19-H ) :   0.8190 B( 18-O , 20-H ) :   0.8665

MP2 TOTAL ENERGY:     -534.253972830 Eh
FINAL SINGLE POINT ENERGY      -534.253972829647

DIPOLE MOMENT
-------------
                                X             Y             Z
Electronic contribution:      0.07357       0.16553       0.00005
Nuclear contribution   :     -0.34045      -0.60038       0.82779
                        -----------------------------------------
Total Dipole Moment    :     -0.26688      -0.43485       0.82785
                        -----------------------------------------
Magnitude (a.u.)       :      0.97244
Magnitude (Debye)      :      2.47175

Rotational constants in cm-1:     0.048334     0.023901     0.018908
Rotational constants in MHz :  1449.027657   716.530718   566.839327

                             ****ORCA TERMINATED NORMALLY****
TOTAL RUN TIME: 0 days 0 hours 1 minutes 52 seconds 291 msec
