                         Program Version 3.0.3 - RELEASE   -
|  1> ! BP86 Def2-SVP TightSCF Opt D3BJ COSMO
|  2>
|  3> %pal nprocs 12 end
|  4>
|  5> %scf
|  6>         maxiter 800
|  7> end
|  8>
|  9> %cosmo
| 10> 	SMD true
| 11>         solvent "WATER"
| 12> end
| 13>
| 14> * xyz  0  1
| 15>   O      1.247365   -1.368293    0.352914
| 16>   H      0.919104   -2.260412    0.121800
| 17>   H      0.488571   -0.983911    0.909244
| 18>   O     -1.110492    1.494166   -0.263267
| 19>   H     -1.980432    1.261024   -0.645265
| 20>   H     -0.460478    1.012623   -0.879814
| 21>   O      0.556468    0.076304   -1.764708
| 22>   H      1.321189    0.659021   -1.945257
| 23>   H      0.891907   -0.505808   -1.001169
| 24>   O     -0.703968   -0.207492    1.735398
| 25>   H     -0.927803    0.474035    1.015097
| 26>   H     -0.199894    0.319801    2.387112
| 27> **                         ****END OF INPUT****
 Total Charge           Charge          ....    0
 Multiplicity           Mult            ....    1
 Number of Electrons    NEL             ....   40
Dispersion correction           -0.007366882
FINAL SINGLE POINT ENERGY      -305.546334647767
Dispersion correction            ...
                    ***********************HURRAY********************

CARTESIAN COORDINATES (ANGSTROEM)
---------------------------------
  O      1.247123   -1.368774    0.353058
  H      0.918425   -2.260883    0.122043
  H      0.488328   -0.983997    0.909437
  O     -1.110486    1.493781   -0.263157
  H     -1.980379    1.260014   -0.644597
  H     -0.460540    1.012745   -0.879644
  O      0.557216    0.076609   -1.765081
  H      1.321498    0.659720   -1.945808
  H      0.891972   -0.505437   -1.001609
  O     -0.703903   -0.207311    1.735478
  H     -0.927803    0.474197    1.014997
  H     -0.199912    0.320394    2.386968

 Multiplicity           Mult            ....    1
 Number of Electrons    NEL             ....   40
 Basis Dimension        Dim             ....   96

ORBITAL ENERGIES
----------------

  NO   OCC          E(Eh)            E(eV)
   0   2.0000     -18.767365      -510.6860
   1   2.0000     -18.767245      -510.6827
   2   2.0000     -18.766877      -510.6727
   3   2.0000     -18.766763      -510.6696
   4   2.0000      -0.909479       -24.7482
   5   2.0000      -0.889769       -24.2119
   6   2.0000      -0.889602       -24.2073
   7   2.0000      -0.870262       -23.6810
   8   2.0000      -0.462837       -12.5944
   9   2.0000      -0.453194       -12.3320
  10   2.0000      -0.451687       -12.2910
  11   2.0000      -0.449985       -12.2447
  12   2.0000      -0.365941        -9.9578
  13   2.0000      -0.334672        -9.1069
  14   2.0000      -0.333849        -9.0845
  15   2.0000      -0.307208        -8.3596
  16   2.0000      -0.253862        -6.9079
  17   2.0000      -0.252921        -6.8823
  18   2.0000      -0.252791        -6.8788
  19   2.0000      -0.247869        -6.7449
  20   0.0000       0.035509         0.9663
  21   0.0000       0.077338         2.1045
  22   0.0000       0.078019         2.1230
  23   0.0000       0.100578         2.7369
  24   0.0000       0.192963         5.2508

MULLIKEN ATOMIC CHARGES
-----------------------
   0 O :   -0.356492
   1 H :    0.210743
   2 H :    0.144487
   3 O :   -0.358302
   4 H :    0.208823
   5 H :    0.148369
   6 O :   -0.357993
   7 H :    0.210844
   8 H :    0.146238
   9 O :   -0.355940
  10 H :    0.149947
  11 H :    0.209275
Sum of atomic charges:   -0.0000000

LOEWDIN ATOMIC CHARGES
----------------------
   0 O :   -0.140278
   1 H :    0.105447
   2 H :    0.033635
   3 O :   -0.140196
   4 H :    0.104786
   5 H :    0.034188
   6 O :   -0.138847
   7 H :    0.105555
   8 H :    0.034664
   9 O :   -0.138728
  10 H :    0.034791
  11 H :    0.104982

  Mayer bond orders larger than 0.1
B(  0-O ,  1-H ) :   0.9726 B(  0-O ,  2-H ) :   0.8475 B(  0-O ,  8-H ) :   0.2566
B(  2-H ,  9-O ) :   0.2579 B(  3-O ,  4-H ) :   0.9733 B(  3-O ,  5-H ) :   0.8480
B(  3-O , 10-H ) :   0.2542 B(  5-H ,  6-O ) :   0.2555 B(  6-O ,  7-H ) :   0.9724
B(  6-O ,  8-H ) :   0.8478 B(  9-O , 10-H ) :   0.8481 B(  9-O , 11-H ) :   0.9732

Dispersion correction           -0.007366379
FINAL SINGLE POINT ENERGY      -305.546336837562

DIPOLE MOMENT
-------------
                                X             Y             Z
Electronic contribution:     -0.00365      -0.00129       0.00996
Nuclear contribution   :      0.05967      -0.00987      -0.13218
                        -----------------------------------------
Total Dipole Moment    :      0.05602      -0.01116      -0.12223
                        -----------------------------------------
Magnitude (a.u.)       :      0.13491
Magnitude (Debye)      :      0.34292

                             ****ORCA TERMINATED NORMALLY****
TOTAL RUN TIME: 0 days 0 hours 1 minutes 39 seconds 575 msec
