                         Program Version 3.0.3 - RELEASE   -
|  1> ! B3LYP Def2-SVP def2-SVP/J RIJCOSX TightSCF Grid4 D3BJ COSMO OPT
|  2>
|  3> %pal nprocs 12 end
|  4>
|  5> %scf
|  6>         maxiter 800
|  7> end
|  8>
|  9> %cosmo
| 10>         SMD true
| 11>         solvent "WATER"
| 12> end
| 13>
| 14> * xyz  0  1
| 15>   O      1.134494   -1.580086    0.161334
| 16>   H      1.507211   -2.296362    0.675399
| 17>   H      0.500713   -1.167853    0.748375
| 18>   O     -1.189894    1.590910   -0.175744
| 19>   H     -1.980325    1.674465   -0.709101
| 20>   H     -0.531952    1.238881   -0.775260
| 21>   O      0.612653    0.297327   -1.768991
| 22>   H      1.294017    0.266195   -2.440559
| 23>   H      0.841158   -0.407027   -1.162441
| 24>   O     -0.633317   -0.255150    1.742956
| 25>   H     -0.901708    0.429983    1.130754
| 26>   H     -0.611514    0.179774    2.595363
| 27> **                         ****END OF INPUT****
 Total Charge           Charge          ....    0
 Multiplicity           Mult            ....    1
 Number of Electrons    NEL             ....   40
 Basis Dimension        Dim             ....   96

ORBITAL ENERGIES
----------------

  NO   OCC          E(Eh)            E(eV)
   0   2.0000     -19.119856      -520.2777
   1   2.0000     -19.118170      -520.2319
   2   2.0000     -19.115571      -520.1611
   3   2.0000     -19.112394      -520.0747
   4   2.0000      -0.996963       -27.1287
   5   2.0000      -0.982657       -26.7395
   6   2.0000      -0.982074       -26.7236
   7   2.0000      -0.968331       -26.3496
   8   2.0000      -0.539938       -14.6925
   9   2.0000      -0.520354       -14.1596
  10   2.0000      -0.517344       -14.0777
  11   2.0000      -0.497135       -13.5277
  12   2.0000      -0.418660       -11.3923
  13   2.0000      -0.381858       -10.3909
  14   2.0000      -0.378224       -10.2920
  15   2.0000      -0.346304        -9.4234
  16   2.0000      -0.309029        -8.4091
  17   2.0000      -0.303853        -8.2683
  18   2.0000      -0.301722        -8.2103
  19   2.0000      -0.293614        -7.9896
  20   0.0000       0.054822         1.4918
  21   0.0000       0.096142         2.6162
  22   0.0000       0.096830         2.6349
  23   0.0000       0.121067         3.2944
  24   0.0000       0.210003         5.7145

MULLIKEN ATOMIC CHARGES
-----------------------
   0 O :   -0.335568
   1 H :    0.191981
   2 H :    0.129554
   3 O :   -0.324579
   4 H :    0.199246
   5 H :    0.139231
   6 O :   -0.326253
   7 H :    0.196665
   8 H :    0.131432
   9 O :   -0.329199
  10 H :    0.130893
  11 H :    0.196598
Sum of atomic charges:   -0.0000000

LOEWDIN ATOMIC CHARGES
----------------------
   0 O :   -0.145184
   1 H :    0.097902
   2 H :    0.026806
   3 O :   -0.118737
   4 H :    0.099137
   5 H :    0.032974
   6 O :   -0.130097
   7 H :    0.100174
   8 H :    0.037859
   9 O :   -0.124638
  10 H :    0.025792
  11 H :    0.098012

  Mayer bond orders larger than 0.1
B(  0-O ,  1-H ) :   0.9723 B(  0-O ,  2-H ) :   0.9205 B(  0-O ,  8-H ) :   0.1553
B(  2-H ,  9-O ) :   0.1794 B(  3-O ,  4-H ) :   0.9778 B(  3-O ,  5-H ) :   0.9292
B(  3-O , 10-H ) :   0.1890 B(  5-H ,  6-O ) :   0.1629 B(  6-O ,  7-H ) :   0.9728
B(  6-O ,  8-H ) :   0.9332 B(  9-O , 10-H ) :   0.9183 B(  9-O , 11-H ) :   0.9765

Dispersion correction           -0.007565485
FINAL SINGLE POINT ENERGY      -305.373149562682
Dispersion correction            ...
Dispersion correction           -0.007475131
FINAL SINGLE POINT ENERGY      -305.376155240629
Dispersion correction            ...
Dispersion correction           -0.007570688
FINAL SINGLE POINT ENERGY      -305.376479656814
Dispersion correction            ...
FINAL SINGLE POINT ENERGY      -305.376710784723
FINAL SINGLE POINT ENERGY      -305.376991222115
FINAL SINGLE POINT ENERGY      -305.377827554436
FINAL SINGLE POINT ENERGY      -305.378416069069
FINAL SINGLE POINT ENERGY      -305.378752853690
FINAL SINGLE POINT ENERGY      -305.378970760728
FINAL SINGLE POINT ENERGY      -305.379131638399
FINAL SINGLE POINT ENERGY      -305.384423965374
FINAL SINGLE POINT ENERGY      -305.384470474836
FINAL SINGLE POINT ENERGY      -305.384603991623
FINAL SINGLE POINT ENERGY      -305.384777266304
FINAL SINGLE POINT ENERGY      -305.391025324001
FINAL SINGLE POINT ENERGY      -305.385592115998
FINAL SINGLE POINT ENERGY      -305.386096961123
Dispersion correction           -0.008280579
FINAL SINGLE POINT ENERGY      -305.386392001466
Dispersion correction            ...
Dispersion correction           -0.008368994
FINAL SINGLE POINT ENERGY      -305.386565422651
Dispersion correction            ...

CARTESIAN COORDINATES (ANGSTROEM)
---------------------------------
  O      0.535942   -1.796953    0.036612
  H      1.373627   -2.050811    0.456631
  H      0.140578   -1.170621    0.700262
  O     -1.269781    1.441820   -0.320341
  H     -2.064505    1.024550   -0.691342
  H     -0.542512    1.069422   -0.889152
  O      0.733669    0.278240   -1.680397
  H      1.535794    0.771938   -1.447761
  H      0.776596   -0.545789   -1.120328
  O     -0.538957   -0.038043    1.789774
  H     -0.899772    0.569695    1.088732
  H      0.260858    0.417609    2.099394

Dispersion correction           -0.008393639
FINAL SINGLE POINT ENERGY      -305.386467713315
Dispersion correction            ...

DIPOLE MOMENT
-------------
                                X             Y             Z
Electronic contribution:     -0.08237       0.01112      -0.04955
Nuclear contribution   :      1.36650       0.23523       0.46484
                        -----------------------------------------
Total Dipole Moment    :      1.28413       0.24636       0.41530
                        -----------------------------------------
Magnitude (a.u.)       :      1.37191
Magnitude (Debye)      :      3.48713

                             ****ORCA TERMINATED NORMALLY****
TOTAL RUN TIME: 0 days 0 hours 42 minutes 57 seconds 703 msec
