                         Program Version 3.0.3 - RELEASE   -
|  1> ! BP86 Def2-SVP TightSCF Opt D3BJ
|  2>
|  3> %pal nprocs 12 end
|  4>
|  5> %scf
|  6>         maxiter 800
|  7> end
|  8>
|  9> * xyz  0  1
| 10>   O      1.134494   -1.580086    0.161334
| 11>   H      1.507211   -2.296362    0.675399
| 12>   H      0.500713   -1.167853    0.748375
| 13>   O     -1.189894    1.590910   -0.175744
| 14>   H     -1.980325    1.674465   -0.709101
| 15>   H     -0.531952    1.238881   -0.775260
| 16>   O      0.612653    0.297327   -1.768991
| 17>   H      1.294017    0.266195   -2.440559
| 18>   H      0.841158   -0.407027   -1.162441
| 19>   O     -0.633317   -0.255150    1.742956
| 20>   H     -0.901708    0.429983    1.130754
| 21>   H     -0.611514    0.179774    2.595363
| 22> **                         ****END OF INPUT****
 Total Charge           Charge          ....    0
 Multiplicity           Mult            ....    1
 Number of Electrons    NEL             ....   40
 Basis Dimension        Dim             ....   96

ORBITAL ENERGIES
----------------

  NO   OCC          E(Eh)            E(eV)
   0   2.0000     -18.760354      -510.4952
   1   2.0000     -18.758134      -510.4348
   2   2.0000     -18.755995      -510.3766
   3   2.0000     -18.749495      -510.1997
   4   2.0000      -0.908715       -24.7274
   5   2.0000      -0.895577       -24.3699
   6   2.0000      -0.894020       -24.3275
   7   2.0000      -0.881146       -23.9772
   8   2.0000      -0.486745       -13.2450
   9   2.0000      -0.466910       -12.7053
  10   2.0000      -0.464813       -12.6482
  11   2.0000      -0.443030       -12.0555
  12   2.0000      -0.359632        -9.7861
  13   2.0000      -0.323433        -8.8011
  14   2.0000      -0.319237        -8.6869
  15   2.0000      -0.287515        -7.8237
  16   2.0000      -0.245932        -6.6922
  17   2.0000      -0.242446        -6.5973
  18   2.0000      -0.239107        -6.5064
  19   2.0000      -0.228488        -6.2175
  20   0.0000       0.028363         0.7718
  21   0.0000       0.062280         1.6947
  22   0.0000       0.063810         1.7364
  23   0.0000       0.083727         2.2783
  24   0.0000       0.186202         5.0668

MULLIKEN ATOMIC CHARGES
-----------------------
   0 O :   -0.286455
   1 H :    0.151756
   2 H :    0.119952
   3 O :   -0.275929
   4 H :    0.159633
   5 H :    0.132087
   6 O :   -0.283108
   7 H :    0.158210
   8 H :    0.126642
   9 O :   -0.281298
  10 H :    0.122078
  11 H :    0.156432
Sum of atomic charges:   -0.0000000

LOEWDIN ATOMIC CHARGES
----------------------
   0 O :   -0.117926
   1 H :    0.075058
   2 H :    0.021750
   3 O :   -0.090322
   4 H :    0.076355
   5 H :    0.029602
   6 O :   -0.105337
   7 H :    0.077951
   8 H :    0.035325
   9 O :   -0.097797
  10 H :    0.020535
  11 H :    0.074805

  Mayer bond orders larger than 0.1
B(  0-O ,  1-H ) :   0.9919 B(  0-O ,  2-H ) :   0.9216 B(  0-O ,  8-H ) :   0.1586
B(  2-H ,  9-O ) :   0.1831 B(  3-O ,  4-H ) :   0.9965 B(  3-O ,  5-H ) :   0.9289
B(  3-O , 10-H ) :   0.1945 B(  5-H ,  6-O ) :   0.1669 B(  6-O ,  7-H ) :   0.9918
B(  6-O ,  8-H ) :   0.9319 B(  9-O , 10-H ) :   0.9179 B(  9-O , 11-H ) :   0.9951

Dispersion correction           -0.006732153
FINAL SINGLE POINT ENERGY      -305.505128105499
Dispersion correction            ...
Dispersion correction           -0.006650539
FINAL SINGLE POINT ENERGY      -305.510813986283
Dispersion correction            ...
Dispersion correction           -0.006772773
FINAL SINGLE POINT ENERGY      -305.512067210572
Dispersion correction            ...
FINAL SINGLE POINT ENERGY      -305.513220228052
FINAL SINGLE POINT ENERGY      -305.513791659325
FINAL SINGLE POINT ENERGY      -305.514309920953
FINAL SINGLE POINT ENERGY      -305.515129386495
FINAL SINGLE POINT ENERGY      -305.515573130563
FINAL SINGLE POINT ENERGY      -305.515871637282
FINAL SINGLE POINT ENERGY      -305.516125474062
FINAL SINGLE POINT ENERGY      -305.524647358997
FINAL SINGLE POINT ENERGY      -305.524675386519
FINAL SINGLE POINT ENERGY      -305.524698768455
FINAL SINGLE POINT ENERGY      -305.524709329681
FINAL SINGLE POINT ENERGY      -305.524713204754
FINAL SINGLE POINT ENERGY      -305.524715987320
FINAL SINGLE POINT ENERGY      -305.524721004851
Dispersion correction           -0.007312596
FINAL SINGLE POINT ENERGY      -305.524727234598
Dispersion correction            ...
Dispersion correction           -0.007313516
FINAL SINGLE POINT ENERGY      -305.524733377825
Dispersion correction            ...

CARTESIAN COORDINATES (ANGSTROEM)
---------------------------------
  O      1.208431   -1.399531    0.315561
  H      0.893756   -2.306868    0.143361
  H      0.475250   -1.001908    0.899762
  O     -1.161328    1.467439   -0.261324
  H     -2.011265    1.195495   -0.655802
  H     -0.478252    1.052053   -0.888497
  O      0.580328    0.137049   -1.739901
  H      1.376367    0.655740   -1.958747
  H      0.901772   -0.502767   -1.017668
  O     -0.650930   -0.181279    1.739390
  H     -0.911936    0.506996    1.035962
  H     -0.180657    0.348638    2.409988

Dispersion correction           -0.007315835
FINAL SINGLE POINT ENERGY      -305.524736877754
Dispersion correction            ...

DIPOLE MOMENT
-------------
                                X             Y             Z
Electronic contribution:     -0.02712       0.02820       0.03302
Nuclear contribution   :      0.09327      -0.08537      -0.11544
                        -----------------------------------------
Total Dipole Moment    :      0.06615      -0.05718      -0.08241
                        -----------------------------------------
Magnitude (a.u.)       :      0.12015
Magnitude (Debye)      :      0.30540

                             ****ORCA TERMINATED NORMALLY****
TOTAL RUN TIME: 0 days 0 hours 40 minutes 18 seconds 919 msec
