                         Program Version 4.2.0 -  RELEASE  -
|  1> # 12mecn.remya.etal.2.mol1
|  2> ! MP2 def2-TZVP EnGrad TightSCF
|  3>
|  4> %pal
|  5>     nprocs 6
|  6> end
|  7>
|  8> %maxcore 8000
|  9>
| 10> %scf
| 11>     ConvForced true
| 12> end
| 13>
| 14> *xyz 0 1
| 15> C  -4.697980000  -0.249690000   1.746215000
| 16> H  -4.927570000   0.755530000   2.111799000
| 17> H  -3.709180000  -0.561560000   2.093253000
| 18> H  -5.432280000  -0.961520000   2.128066000
| 19> C  -4.714100000  -0.247110000   0.301670000
| 20> N  -4.729750000  -0.234960000  -0.865260000
| 21> *
| 22>
| 23>                          ****END OF INPUT****

CARTESIAN COORDINATES (ANGSTROEM)
---------------------------------
  C     -4.697980   -0.249690    1.746215
  H     -4.927570    0.755530    2.111799
  H     -3.709180   -0.561560    2.093253
  H     -5.432280   -0.961520    2.128066
  C     -4.714100   -0.247110    0.301670
  N     -4.729750   -0.234960   -0.865260

 Total Charge           Charge          ....    0
 Multiplicity           Mult            ....    1
 Number of Electrons    NEL             ....   22
 Basis Dimension        Dim             ....  111

ORBITAL ENERGIES
----------------

  NO   OCC          E(Eh)            E(eV)
   0   2.0000     -15.573485      -423.7761
   1   2.0000     -11.285347      -307.0899
   2   2.0000     -11.280405      -306.9554
   3   2.0000      -1.214609       -33.0512
   4   2.0000      -1.044650       -28.4264
   5   2.0000      -0.700544       -19.0628
   6   2.0000      -0.634620       -17.2689
   7   2.0000      -0.630496       -17.1567
   8   2.0000      -0.556070       -15.1314
   9   2.0000      -0.457974       -12.4621
  10   2.0000      -0.457458       -12.4481
  11   0.0000       0.118715         3.2304
  12   0.0000       0.170772         4.6469
  13   0.0000       0.171312         4.6616
  14   0.0000       0.202196         5.5020
  15   0.0000       0.223969         6.0945

MULLIKEN ATOMIC CHARGES
-----------------------
   0 C :   -0.278853
   1 H :    0.172369
   2 H :    0.171891
   3 H :    0.172168
   4 C :   -0.145683
   5 N :   -0.091892
Sum of atomic charges:   -0.0000000

LOEWDIN ATOMIC CHARGES
----------------------
   0 C :   -0.283764
   1 H :    0.153024
   2 H :    0.152823
   3 H :    0.151629
   4 C :   -0.219843
   5 N :    0.046131

  Mayer bond orders larger than 0.100000
B(  0-C ,  1-H ) :   0.9159 B(  0-C ,  2-H ) :   0.9167 B(  0-C ,  3-H ) :   0.9170
B(  0-C ,  4-C ) :   0.9015 B(  4-C ,  5-N ) :   2.8365

MP2 TOTAL ENERGY:     -132.483067035 Eh
FINAL SINGLE POINT ENERGY      -132.483067034525

DIPOLE MOMENT
-------------
                                X             Y             Z
Electronic contribution:     -0.04539       0.01915      -3.10992
Nuclear contribution   :      0.06534      -0.03228       4.64119
                        -----------------------------------------
Total Dipole Moment    :      0.01995      -0.01313       1.53127
                        -----------------------------------------
Magnitude (a.u.)       :      1.53145
Magnitude (Debye)      :      3.89265

Rotational constants in cm-1:     5.251750     0.308732     0.308418
Rotational constants in MHz : 157443.502920  9255.565229  9246.134282

                             ****ORCA TERMINATED NORMALLY****
TOTAL RUN TIME: 0 days 0 hours 0 minutes 12 seconds 855 msec
