                         Program Version 4.2.0 -  RELEASE  -
|  1> # 12mecn.remya.etal.2.mol3,6,7
|  2> ! MP2 def2-TZVP EnGrad TightSCF
|  3>
|  4> %pal
|  5>     nprocs 6
|  6> end
|  7>
|  8> %maxcore 8000
|  9>
| 10> %scf
| 11>     ConvForced true
| 12> end
| 13>
| 14> *xyz 0 1
| 15> C  -5.181310000   2.853865000  -1.626100000
| 16> H  -5.488260000   3.811434000  -2.053310000
| 17> H  -5.857590000   2.068112000  -1.968630000
| 18> H  -4.170750000   2.611402000  -1.966640000
| 19> C  -5.187260000   2.919160000  -0.181450000
| 20> N  -5.181700000   2.970641000   0.983640000
| 21> C   5.300864000  -2.920090000   1.401103000
| 22> H   5.986071000  -2.139770000   1.737487000
| 23> H   5.636642000  -3.888750000   1.778233000
| 24> H   4.307359000  -2.697240000   1.799307000
| 25> C   5.234791000  -2.933140000  -0.043290000
| 26> N   5.170868000  -2.941760000  -1.207750000
| 27> C   1.502241000   0.651296000   1.710523000
| 28> H   1.309219000   1.637164000   2.143202000
| 29> H   2.493408000   0.297996000   2.009069000
| 30> H   0.746597000  -0.059850000   2.055508000
| 31> C   1.447974000   0.738517000   0.269805000
| 32> N   1.405612000   0.808047000  -0.894380000
| 33> *
| 34>
| 35>                          ****END OF INPUT****

CARTESIAN COORDINATES (ANGSTROEM)
---------------------------------
  C     -5.181310    2.853865   -1.626100
  H     -5.488260    3.811434   -2.053310
  H     -5.857590    2.068112   -1.968630
  H     -4.170750    2.611402   -1.966640
  C     -5.187260    2.919160   -0.181450
  N     -5.181700    2.970641    0.983640
  C      5.300864   -2.920090    1.401103
  H      5.986071   -2.139770    1.737487
  H      5.636642   -3.888750    1.778233
  H      4.307359   -2.697240    1.799307
  C      5.234791   -2.933140   -0.043290
  N      5.170868   -2.941760   -1.207750
  C      1.502241    0.651296    1.710523
  H      1.309219    1.637164    2.143202
  H      2.493408    0.297996    2.009069
  H      0.746597   -0.059850    2.055508
  C      1.447974    0.738517    0.269805
  N      1.405612    0.808047   -0.894380

 Total Charge           Charge          ....    0
 Multiplicity           Mult            ....    1
 Number of Electrons    NEL             ....   66
 Basis Dimension        Dim             ....  333

ORBITAL ENERGIES
----------------

  NO   OCC          E(Eh)            E(eV)
   0   2.0000     -15.573978      -423.7895
   1   2.0000     -15.573728      -423.7827
   2   2.0000     -15.572470      -423.7484
   3   2.0000     -11.288409      -307.1732
   4   2.0000     -11.287699      -307.1539
   5   2.0000     -11.282662      -307.0168
   6   2.0000     -11.280204      -306.9499
   7   2.0000     -11.280129      -306.9479
   8   2.0000     -11.279887      -306.9413
   9   2.0000      -1.215076       -33.0639
  10   2.0000      -1.214722       -33.0543
  11   2.0000      -1.214354       -33.0443
  12   2.0000      -1.046707       -28.4823
  13   2.0000      -1.046343       -28.4724
  14   2.0000      -1.041946       -28.3528
  15   2.0000      -0.703819       -19.1519
  16   2.0000      -0.700809       -19.0700
  17   2.0000      -0.699480       -19.0338
  18   2.0000      -0.636793       -17.3280
  19   2.0000      -0.635282       -17.2869
  20   2.0000      -0.634255       -17.2590
  21   2.0000      -0.633325       -17.2336
  22   2.0000      -0.630512       -17.1571
  23   2.0000      -0.628044       -17.0899
  24   2.0000      -0.555986       -15.1291
  25   2.0000      -0.555865       -15.1259
  26   2.0000      -0.555843       -15.1253
  27   2.0000      -0.458804       -12.4847
  28   2.0000      -0.458209       -12.4685
  29   2.0000      -0.457794       -12.4572
  30   2.0000      -0.457660       -12.4536
  31   2.0000      -0.457374       -12.4458
  32   2.0000      -0.457089       -12.4380
  33   0.0000       0.092603         2.5198
  34   0.0000       0.121512         3.3065
  35   0.0000       0.133689         3.6379
  36   0.0000       0.164523         4.4769
  37   0.0000       0.167905         4.5689

MULLIKEN ATOMIC CHARGES
-----------------------
   0 C :   -0.281454
   1 H :    0.171924
   2 H :    0.171699
   3 H :    0.177912
   4 C :   -0.145203
   5 N :   -0.094884
   6 C :   -0.284876
   7 H :    0.172774
   8 H :    0.175521
   9 H :    0.164041
  10 C :   -0.143671
  11 N :   -0.083823
  12 C :   -0.278608
  13 H :    0.176725
  14 H :    0.161444
  15 H :    0.174276
  16 C :   -0.144947
  17 N :   -0.088848
Sum of atomic charges:    0.0000000

LOEWDIN ATOMIC CHARGES
----------------------
   0 C :   -0.283171
   1 H :    0.151548
   2 H :    0.151672
   3 H :    0.154911
   4 C :   -0.218181
   5 N :    0.043218
   6 C :   -0.285452
   7 H :    0.151102
   8 H :    0.151837
   9 H :    0.149843
  10 C :   -0.219892
  11 N :    0.052548
  12 C :   -0.284187
  13 H :    0.153872
  14 H :    0.149262
  15 H :    0.153239
  16 C :   -0.221242
  17 N :    0.049074

  Mayer bond orders larger than 0.100000
B(  0-C ,  1-H ) :   0.9160 B(  0-C ,  2-H ) :   0.9165 B(  0-C ,  3-H ) :   0.9152
B(  0-C ,  4-C ) :   0.9025 B(  4-C ,  5-N ) :   2.8399 B(  6-C ,  7-H ) :   0.9179
B(  6-C ,  8-H ) :   0.9158 B(  6-C ,  9-H ) :   0.9195 B(  6-C , 10-C ) :   0.9014
B( 10-C , 11-N ) :   2.8313 B( 12-C , 13-H ) :   0.9154 B( 12-C , 14-H ) :   0.9195
B( 12-C , 15-H ) :   0.9168 B( 12-C , 16-C ) :   0.8998 B( 16-C , 17-N ) :   2.8334

MP2 TOTAL ENERGY:     -397.449010267 Eh
FINAL SINGLE POINT ENERGY      -397.449010266889

DIPOLE MOMENT
-------------
                                X             Y             Z
Electronic contribution:     -0.27290       0.30860      -3.17662
Nuclear contribution   :      0.40593      -0.45569       4.61607
                        -----------------------------------------
Total Dipole Moment    :      0.13304      -0.14709       1.43945
                        -----------------------------------------
Magnitude (a.u.)       :      1.45305
Magnitude (Debye)      :      3.69335

Rotational constants in cm-1:     0.077037     0.005596     0.005385
Rotational constants in MHz :  2309.501149   167.765487   161.432137

                             ****ORCA TERMINATED NORMALLY****
TOTAL RUN TIME: 0 days 0 hours 2 minutes 3 seconds 389 msec
