                         Program Version 4.2.0 -  RELEASE  -
|  1> # 12h2o.su.etal.mol0,1,2,4,5,6,7,9
|  2> ! MP2 def2-TZVP EnGrad TightSCF
|  3>
|  4> %pal
|  5>     nprocs 6
|  6> end
|  7>
|  8> %maxcore 8000
|  9>
| 10> %scf
| 11>     ConvForced true
| 12> end
| 13>
| 14> *xyz 0 1
| 15> O   1.794470000   0.923410000   2.768350000
| 16> H   2.338250000   1.359750000   3.430940000
| 17> H   0.879480000   1.303000000   2.865760000
| 18> O  -1.794470000  -0.923410000   2.768350000
| 19> H  -2.338250000  -1.359750000   3.430940000
| 20> H  -0.879480000  -1.303000000   2.865760000
| 21> O   0.923410000  -1.794470000  -2.768350000
| 22> H   1.359750000  -2.338250000  -3.430940000
| 23> H   1.303000000  -0.879480000  -2.865760000
| 24> O  -0.885520000   1.737840000   0.052730000
| 25> H  -1.032320000   2.090180000  -0.841890000
| 26> H  -1.284090000   0.839590000   0.017130000
| 27> O   0.885520000  -1.737840000   0.052730000
| 28> H   1.284090000  -0.839590000   0.017130000
| 29> H   1.032320000  -2.090180000  -0.841890000
| 30> O   1.737840000   0.885520000  -0.052730000
| 31> H   2.090180000   1.032320000   0.841890000
| 32> H   0.839590000   1.284090000  -0.017130000
| 33> O  -1.737840000  -0.885520000  -0.052730000
| 34> H  -2.090180000  -1.032320000   0.841890000
| 35> H  -0.839590000  -1.284090000  -0.017130000
| 36> O   0.741530000  -1.752130000   2.896280000
| 37> H   0.920500000  -2.036450000   1.984040000
| 38> H   1.242140000  -0.921210000   2.984230000
| 39> *
| 40>
| 41>                          ****END OF INPUT****

CARTESIAN COORDINATES (ANGSTROEM)
---------------------------------
  O      1.794470    0.923410    2.768350
  H      2.338250    1.359750    3.430940
  H      0.879480    1.303000    2.865760
  O     -1.794470   -0.923410    2.768350
  H     -2.338250   -1.359750    3.430940
  H     -0.879480   -1.303000    2.865760
  O      0.923410   -1.794470   -2.768350
  H      1.359750   -2.338250   -3.430940
  H      1.303000   -0.879480   -2.865760
  O     -0.885520    1.737840    0.052730
  H     -1.032320    2.090180   -0.841890
  H     -1.284090    0.839590    0.017130
  O      0.885520   -1.737840    0.052730
  H      1.284090   -0.839590    0.017130
  H      1.032320   -2.090180   -0.841890
  O      1.737840    0.885520   -0.052730
  H      2.090180    1.032320    0.841890
  H      0.839590    1.284090   -0.017130
  O     -1.737840   -0.885520   -0.052730
  H     -2.090180   -1.032320    0.841890
  H     -0.839590   -1.284090   -0.017130
  O      0.741530   -1.752130    2.896280
  H      0.920500   -2.036450    1.984040
  H      1.242140   -0.921210    2.984230

 Total Charge           Charge          ....    0
 Multiplicity           Mult            ....    1
 Number of Electrons    NEL             ....   80
 Basis Dimension        Dim             ....  344

ORBITAL ENERGIES
----------------

  NO   OCC          E(Eh)            E(eV)
   0   2.0000     -20.612066      -560.8828
   1   2.0000     -20.585870      -560.1700
   2   2.0000     -20.547960      -559.1384
   3   2.0000     -20.547067      -559.1141
   4   2.0000     -20.544298      -559.0388
   5   2.0000     -20.541683      -558.9676
   6   2.0000     -20.531329      -558.6859
   7   2.0000     -20.515682      -558.2601
   8   2.0000      -1.392645       -37.8958
   9   2.0000      -1.364425       -37.1279
  10   2.0000      -1.347478       -36.6667
  11   2.0000      -1.341308       -36.4988
  12   2.0000      -1.332708       -36.2648
  13   2.0000      -1.322713       -35.9929
  14   2.0000      -1.314761       -35.7765
  15   2.0000      -1.298105       -35.3232
  16   2.0000      -0.757930       -20.6243
  17   2.0000      -0.730907       -19.8890
  18   2.0000      -0.712549       -19.3895
  19   2.0000      -0.704703       -19.1759
  20   2.0000      -0.702081       -19.1046
  21   2.0000      -0.698175       -18.9983
  22   2.0000      -0.696666       -18.9572
  23   2.0000      -0.677363       -18.4320
  24   2.0000      -0.637744       -17.3539
  25   2.0000      -0.613572       -16.6961
  26   2.0000      -0.599719       -16.3192
  27   2.0000      -0.595652       -16.2085
  28   2.0000      -0.575634       -15.6638
  29   2.0000      -0.568816       -15.4783
  30   2.0000      -0.563189       -15.3252
  31   2.0000      -0.541849       -14.7445
  32   2.0000      -0.536316       -14.5939
  33   2.0000      -0.523183       -14.2365
  34   2.0000      -0.493451       -13.4275
  35   2.0000      -0.492740       -13.4081
  36   2.0000      -0.488468       -13.2919
  37   2.0000      -0.486864       -13.2482
  38   2.0000      -0.479573       -13.0499
  39   2.0000      -0.465043       -12.6545
  40   0.0000       0.101165         2.7529
  41   0.0000       0.116017         3.1570
  42   0.0000       0.151000         4.1089
  43   0.0000       0.161581         4.3968
  44   0.0000       0.190904         5.1948

MULLIKEN ATOMIC CHARGES
-----------------------
   0 O :   -0.725888
   1 H :    0.364669
   2 H :    0.386281
   3 O :   -0.744492
   4 H :    0.333363
   5 H :    0.370818
   6 O :   -0.695350
   7 H :    0.350174
   8 H :    0.362415
   9 O :   -0.725944
  10 H :    0.342917
  11 H :    0.379077
  12 O :   -0.759420
  13 H :    0.356418
  14 H :    0.380648
  15 O :   -0.734101
  16 H :    0.370933
  17 H :    0.356451
  18 O :   -0.738590
  19 H :    0.374300
  20 H :    0.363336
  21 O :   -0.718808
  22 H :    0.388684
  23 H :    0.362112
Sum of atomic charges:    0.0000000

LOEWDIN ATOMIC CHARGES
----------------------
   0 O :   -0.288752
   1 H :    0.168295
   2 H :    0.197747
   3 O :   -0.345694
   4 H :    0.151794
   5 H :    0.143100
   6 O :   -0.309356
   7 H :    0.162759
   8 H :    0.188529
   9 O :   -0.316284
  10 H :    0.163927
  11 H :    0.146980
  12 O :   -0.305666
  13 H :    0.140096
  14 H :    0.152650
  15 O :   -0.321052
  16 H :    0.146897
  17 H :    0.139344
  18 O :   -0.319540
  19 H :    0.148553
  20 H :    0.139370
  21 O :   -0.287611
  22 H :    0.156572
  23 H :    0.147341

  Mayer bond orders larger than 0.100000
B(  0-O ,  1-H ) :   0.8318 B(  0-O ,  2-H ) :   0.8080 B(  3-O ,  4-H ) :   0.8524
B(  3-O ,  5-H ) :   0.7496 B(  5-H , 21-O ) :   0.1123 B(  6-O ,  7-H ) :   0.8432
B(  6-O ,  8-H ) :   0.8288 B(  9-O , 10-H ) :   0.8462 B(  9-O , 11-H ) :   0.7462
B(  9-O , 17-H ) :   0.1183 B( 11-H , 18-O ) :   0.1260 B( 12-O , 13-H ) :   0.7559
B( 12-O , 14-H ) :   0.8014 B( 13-H , 15-O ) :   0.1178 B( 15-O , 16-H ) :   0.8169
B( 15-O , 17-H ) :   0.7683 B( 18-O , 19-H ) :   0.8014 B( 18-O , 20-H ) :   0.7817
B( 21-O , 22-H ) :   0.7972 B( 21-O , 23-H ) :   0.8145

MP2 TOTAL ENERGY:     -610.601397641 Eh
FINAL SINGLE POINT ENERGY      -610.601397641444

DIPOLE MOMENT
-------------
                                X             Y             Z
Electronic contribution:      0.13768      -0.10339      -0.01536
Nuclear contribution   :      1.24480       0.76395      -0.05351
                        -----------------------------------------
Total Dipole Moment    :      1.38249       0.66056      -0.06887
                        -----------------------------------------
Magnitude (a.u.)       :      1.53374
Magnitude (Debye)      :      3.89846

Rotational constants in cm-1:     0.032460     0.022506     0.020915
Rotational constants in MHz :   973.117463   674.717770   627.006141

                             ****ORCA TERMINATED NORMALLY****
TOTAL RUN TIME: 0 days 0 hours 3 minutes 36 seconds 584 msec
