                         Program Version 4.2.0 -  RELEASE  -
|  1> # 12h2o.su.etal.mol0,2,3,4,5,7,11
|  2> ! MP2 def2-TZVP EnGrad TightSCF
|  3>
|  4> %pal
|  5>     nprocs 6
|  6> end
|  7>
|  8> %maxcore 8000
|  9>
| 10> %scf
| 11>     ConvForced true
| 12> end
| 13>
| 14> *xyz 0 1
| 15> O   1.794470000   0.923410000   2.768350000
| 16> H   2.338250000   1.359750000   3.430940000
| 17> H   0.879480000   1.303000000   2.865760000
| 18> O   0.923410000  -1.794470000  -2.768350000
| 19> H   1.359750000  -2.338250000  -3.430940000
| 20> H   1.303000000  -0.879480000  -2.865760000
| 21> O  -1.752130000  -0.741530000  -2.896280000
| 22> H  -2.036450000  -0.920500000  -1.984040000
| 23> H  -0.921210000  -1.242140000  -2.984230000
| 24> O  -0.885520000   1.737840000   0.052730000
| 25> H  -1.032320000   2.090180000  -0.841890000
| 26> H  -1.284090000   0.839590000   0.017130000
| 27> O   0.885520000  -1.737840000   0.052730000
| 28> H   1.284090000  -0.839590000   0.017130000
| 29> H   1.032320000  -2.090180000  -0.841890000
| 30> O  -1.737840000  -0.885520000  -0.052730000
| 31> H  -2.090180000  -1.032320000   0.841890000
| 32> H  -0.839590000  -1.284090000  -0.017130000
| 33> O  -0.741530000   1.752130000   2.896280000
| 34> H  -0.920500000   2.036450000   1.984040000
| 35> H  -1.242140000   0.921210000   2.984230000
| 36> *
| 37>
| 38>                          ****END OF INPUT****

CARTESIAN COORDINATES (ANGSTROEM)
---------------------------------
  O      1.794470    0.923410    2.768350
  H      2.338250    1.359750    3.430940
  H      0.879480    1.303000    2.865760
  O      0.923410   -1.794470   -2.768350
  H      1.359750   -2.338250   -3.430940
  H      1.303000   -0.879480   -2.865760
  O     -1.752130   -0.741530   -2.896280
  H     -2.036450   -0.920500   -1.984040
  H     -0.921210   -1.242140   -2.984230
  O     -0.885520    1.737840    0.052730
  H     -1.032320    2.090180   -0.841890
  H     -1.284090    0.839590    0.017130
  O      0.885520   -1.737840    0.052730
  H      1.284090   -0.839590    0.017130
  H      1.032320   -2.090180   -0.841890
  O     -1.737840   -0.885520   -0.052730
  H     -2.090180   -1.032320    0.841890
  H     -0.839590   -1.284090   -0.017130
  O     -0.741530    1.752130    2.896280
  H     -0.920500    2.036450    1.984040
  H     -1.242140    0.921210    2.984230

 Total Charge           Charge          ....    0
 Multiplicity           Mult            ....    1
 Number of Electrons    NEL             ....   70
 Basis Dimension        Dim             ....  301

ORBITAL ENERGIES
----------------

  NO   OCC          E(Eh)            E(eV)
   0   2.0000     -20.625168      -561.2394
   1   2.0000     -20.583939      -560.1174
   2   2.0000     -20.577770      -559.9496
   3   2.0000     -20.565448      -559.6143
   4   2.0000     -20.555133      -559.3336
   5   2.0000     -20.524386      -558.4969
   6   2.0000     -20.508888      -558.0752
   7   2.0000      -1.405655       -38.2498
   8   2.0000      -1.377325       -37.4789
   9   2.0000      -1.357009       -36.9261
  10   2.0000      -1.354969       -36.8706
  11   2.0000      -1.335594       -36.3434
  12   2.0000      -1.309538       -35.6343
  13   2.0000      -1.290824       -35.1251
  14   2.0000      -0.771094       -20.9825
  15   2.0000      -0.738146       -20.0860
  16   2.0000      -0.724833       -19.7237
  17   2.0000      -0.719305       -19.5733
  18   2.0000      -0.707383       -19.2489
  19   2.0000      -0.689961       -18.7748
  20   2.0000      -0.678684       -18.4679
  21   2.0000      -0.648477       -17.6460
  22   2.0000      -0.622666       -16.9436
  23   2.0000      -0.603424       -16.4200
  24   2.0000      -0.602693       -16.4001
  25   2.0000      -0.578051       -15.7296
  26   2.0000      -0.561987       -15.2925
  27   2.0000      -0.541023       -14.7220
  28   2.0000      -0.538353       -14.6493
  29   2.0000      -0.524301       -14.2670
  30   2.0000      -0.518868       -14.1191
  31   2.0000      -0.505601       -13.7581
  32   2.0000      -0.494326       -13.4513
  33   2.0000      -0.473883       -12.8950
  34   2.0000      -0.459434       -12.5018
  35   0.0000       0.082379         2.2416
  36   0.0000       0.105784         2.8785
  37   0.0000       0.145809         3.9677
  38   0.0000       0.168787         4.5929
  39   0.0000       0.172608         4.6969

MULLIKEN ATOMIC CHARGES
-----------------------
   0 O :   -0.737949
   1 H :    0.321701
   2 H :    0.370689
   3 O :   -0.718084
   4 H :    0.369922
   5 H :    0.371261
   6 O :   -0.721535
   7 H :    0.368577
   8 H :    0.341942
   9 O :   -0.735236
  10 H :    0.348714
  11 H :    0.354812
  12 O :   -0.698997
  13 H :    0.362924
  14 H :    0.375842
  15 O :   -0.732442
  16 H :    0.349841
  17 H :    0.376072
  18 O :   -0.690910
  19 H :    0.390267
  20 H :    0.332588
Sum of atomic charges:    0.0000000

LOEWDIN ATOMIC CHARGES
----------------------
   0 O :   -0.375686
   1 H :    0.147194
   2 H :    0.142901
   3 O :   -0.287998
   4 H :    0.170453
   5 H :    0.192371
   6 O :   -0.351306
   7 H :    0.149155
   8 H :    0.139965
   9 O :   -0.342309
  10 H :    0.167520
  11 H :    0.140960
  12 O :   -0.291742
  13 H :    0.179442
  14 H :    0.151544
  15 O :   -0.294443
  16 H :    0.166126
  17 H :    0.148160
  18 O :   -0.276528
  19 H :    0.160601
  20 H :    0.163619

  Mayer bond orders larger than 0.100000
B(  0-O ,  1-H ) :   0.8622 B(  0-O ,  2-H ) :   0.7770 B(  3-O ,  4-H ) :   0.8286
B(  3-O ,  5-H ) :   0.8200 B(  6-O ,  7-H ) :   0.8249 B(  6-O ,  8-H ) :   0.8362
B(  9-O , 10-H ) :   0.8430 B(  9-O , 11-H ) :   0.7775 B( 12-O , 13-H ) :   0.8258
B( 12-O , 14-H ) :   0.8080 B( 12-O , 17-H ) :   0.1098 B( 15-O , 16-H ) :   0.8395
B( 15-O , 17-H ) :   0.7496 B( 18-O , 19-H ) :   0.7936 B( 18-O , 20-H ) :   0.8515

MP2 TOTAL ENERGY:     -534.250398391 Eh
FINAL SINGLE POINT ENERGY      -534.250398391002

DIPOLE MOMENT
-------------
                                X             Y             Z
Electronic contribution:     -0.04012      -0.23654      -0.16488
Nuclear contribution   :      0.71387      -0.48644      -0.77428
                        -----------------------------------------
Total Dipole Moment    :      0.67376      -0.72298      -0.93915
                        -----------------------------------------
Magnitude (a.u.)       :      1.36333
Magnitude (Debye)      :      3.46531

Rotational constants in cm-1:     0.052501     0.020688     0.017064
Rotational constants in MHz :  1573.946012   620.222413   511.563472

                             ****ORCA TERMINATED NORMALLY****
TOTAL RUN TIME: 0 days 0 hours 1 minutes 57 seconds 441 msec
