                         Program Version 4.2.0 -  RELEASE  -
|  1> # 12h2o.su.etal.mol0,2,7,8,9,10,11
|  2> ! MP2 def2-TZVP EnGrad TightSCF
|  3>
|  4> %pal
|  5>     nprocs 6
|  6> end
|  7>
|  8> %maxcore 8000
|  9>
| 10> %scf
| 11>     ConvForced true
| 12> end
| 13>
| 14> *xyz 0 1
| 15> O   1.794470000   0.923410000   2.768350000
| 16> H   2.338250000   1.359750000   3.430940000
| 17> H   0.879480000   1.303000000   2.865760000
| 18> O   0.923410000  -1.794470000  -2.768350000
| 19> H   1.359750000  -2.338250000  -3.430940000
| 20> H   1.303000000  -0.879480000  -2.865760000
| 21> O  -1.737840000  -0.885520000  -0.052730000
| 22> H  -2.090180000  -1.032320000   0.841890000
| 23> H  -0.839590000  -1.284090000  -0.017130000
| 24> O   1.752130000   0.741530000  -2.896280000
| 25> H   2.036450000   0.920500000  -1.984040000
| 26> H   0.921210000   1.242140000  -2.984230000
| 27> O   0.741530000  -1.752130000   2.896280000
| 28> H   0.920500000  -2.036450000   1.984040000
| 29> H   1.242140000  -0.921210000   2.984230000
| 30> O  -0.923410000   1.794470000  -2.768350000
| 31> H  -1.359750000   2.338250000  -3.430940000
| 32> H  -1.303000000   0.879480000  -2.865760000
| 33> O  -0.741530000   1.752130000   2.896280000
| 34> H  -0.920500000   2.036450000   1.984040000
| 35> H  -1.242140000   0.921210000   2.984230000
| 36> *
| 37>
| 38>                          ****END OF INPUT****

CARTESIAN COORDINATES (ANGSTROEM)
---------------------------------
  O      1.794470    0.923410    2.768350
  H      2.338250    1.359750    3.430940
  H      0.879480    1.303000    2.865760
  O      0.923410   -1.794470   -2.768350
  H      1.359750   -2.338250   -3.430940
  H      1.303000   -0.879480   -2.865760
  O     -1.737840   -0.885520   -0.052730
  H     -2.090180   -1.032320    0.841890
  H     -0.839590   -1.284090   -0.017130
  O      1.752130    0.741530   -2.896280
  H      2.036450    0.920500   -1.984040
  H      0.921210    1.242140   -2.984230
  O      0.741530   -1.752130    2.896280
  H      0.920500   -2.036450    1.984040
  H      1.242140   -0.921210    2.984230
  O     -0.923410    1.794470   -2.768350
  H     -1.359750    2.338250   -3.430940
  H     -1.303000    0.879480   -2.865760
  O     -0.741530    1.752130    2.896280
  H     -0.920500    2.036450    1.984040
  H     -1.242140    0.921210    2.984230

 Total Charge           Charge          ....    0
 Multiplicity           Mult            ....    1
 Number of Electrons    NEL             ....   70
 Basis Dimension        Dim             ....  301

ORBITAL ENERGIES
----------------

  NO   OCC          E(Eh)            E(eV)
   0   2.0000     -20.603314      -560.6447
   1   2.0000     -20.591193      -560.3149
   2   2.0000     -20.568541      -559.6984
   3   2.0000     -20.566672      -559.6476
   4   2.0000     -20.550575      -559.2096
   5   2.0000     -20.538455      -558.8798
   6   2.0000     -20.519251      -558.3572
   7   2.0000      -1.389097       -37.7992
   8   2.0000      -1.370523       -37.2938
   9   2.0000      -1.355740       -36.8916
  10   2.0000      -1.342374       -36.5278
  11   2.0000      -1.335822       -36.3496
  12   2.0000      -1.319174       -35.8965
  13   2.0000      -1.301010       -35.4023
  14   2.0000      -0.745726       -20.2922
  15   2.0000      -0.737383       -20.0652
  16   2.0000      -0.720042       -19.5933
  17   2.0000      -0.717120       -19.5138
  18   2.0000      -0.704314       -19.1654
  19   2.0000      -0.688414       -18.7327
  20   2.0000      -0.688324       -18.7303
  21   2.0000      -0.628773       -17.1098
  22   2.0000      -0.616508       -16.7760
  23   2.0000      -0.590204       -16.0603
  24   2.0000      -0.586600       -15.9622
  25   2.0000      -0.582719       -15.8566
  26   2.0000      -0.558732       -15.2039
  27   2.0000      -0.549951       -14.9649
  28   2.0000      -0.531840       -14.4721
  29   2.0000      -0.531456       -14.4617
  30   2.0000      -0.509448       -13.8628
  31   2.0000      -0.501386       -13.6434
  32   2.0000      -0.499498       -13.5920
  33   2.0000      -0.485553       -13.2126
  34   2.0000      -0.470026       -12.7900
  35   0.0000       0.086090         2.3426
  36   0.0000       0.114663         3.1201
  37   0.0000       0.138192         3.7604
  38   0.0000       0.147139         4.0039
  39   0.0000       0.159323         4.3354

MULLIKEN ATOMIC CHARGES
-----------------------
   0 O :   -0.739148
   1 H :    0.341616
   2 H :    0.378344
   3 O :   -0.739595
   4 H :    0.326420
   5 H :    0.364943
   6 O :   -0.683162
   7 H :    0.331867
   8 H :    0.349093
   9 O :   -0.701816
  10 H :    0.354170
  11 H :    0.373488
  12 O :   -0.713468
  13 H :    0.325829
  14 H :    0.364008
  15 O :   -0.707056
  16 H :    0.352870
  17 H :    0.378265
  18 O :   -0.684908
  19 H :    0.366380
  20 H :    0.361861
Sum of atomic charges:   -0.0000000

LOEWDIN ATOMIC CHARGES
----------------------
   0 O :   -0.340093
   1 H :    0.155910
   2 H :    0.144927
   3 O :   -0.376627
   4 H :    0.149312
   5 H :    0.140952
   6 O :   -0.336623
   7 H :    0.160918
   8 H :    0.174248
   9 O :   -0.283736
  10 H :    0.171515
  11 H :    0.153351
  12 O :   -0.349343
  13 H :    0.156530
  14 H :    0.148107
  15 O :   -0.312430
  16 H :    0.164082
  17 H :    0.194576
  18 O :   -0.268842
  19 H :    0.177697
  20 H :    0.175569

  Mayer bond orders larger than 0.100000
B(  0-O ,  1-H ) :   0.8482 B(  0-O ,  2-H ) :   0.7652 B(  3-O ,  4-H ) :   0.8597
B(  3-O ,  5-H ) :   0.7749 B(  6-O ,  7-H ) :   0.8540 B(  6-O ,  8-H ) :   0.8384
B(  9-O , 10-H ) :   0.8399 B(  9-O , 11-H ) :   0.7966 B( 12-O , 13-H ) :   0.8581
B( 12-O , 14-H ) :   0.8026 B( 15-O , 16-H ) :   0.8412 B( 15-O , 17-H ) :   0.8160
B( 18-O , 19-H ) :   0.8310 B( 18-O , 20-H ) :   0.8306

MP2 TOTAL ENERGY:     -534.237366556 Eh
FINAL SINGLE POINT ENERGY      -534.237366555963

DIPOLE MOMENT
-------------
                                X             Y             Z
Electronic contribution:     -0.28148       0.52823       0.06994
Nuclear contribution   :     -0.30955       0.79086      -0.54442
                        -----------------------------------------
Total Dipole Moment    :     -0.59103       1.31909      -0.47448
                        -----------------------------------------
Magnitude (a.u.)       :      1.52133
Magnitude (Debye)      :      3.86691

Rotational constants in cm-1:     0.035141     0.015749     0.014651
Rotational constants in MHz :  1053.495412   472.153027   439.235893

                             ****ORCA TERMINATED NORMALLY****
TOTAL RUN TIME: 0 days 0 hours 1 minutes 57 seconds 423 msec
