                         Program Version 4.2.0 -  RELEASE  -
|  1> # 12h2o.su.etal.mol2,3,4,6,7,10
|  2> ! MP2 def2-TZVP EnGrad TightSCF
|  3>
|  4> %pal
|  5>     nprocs 6
|  6> end
|  7>
|  8> %maxcore 8000
|  9>
| 10> %scf
| 11>     ConvForced true
| 12> end
| 13>
| 14> *xyz 0 1
| 15> O   0.923410000  -1.794470000  -2.768350000
| 16> H   1.359750000  -2.338250000  -3.430940000
| 17> H   1.303000000  -0.879480000  -2.865760000
| 18> O  -1.752130000  -0.741530000  -2.896280000
| 19> H  -2.036450000  -0.920500000  -1.984040000
| 20> H  -0.921210000  -1.242140000  -2.984230000
| 21> O  -0.885520000   1.737840000   0.052730000
| 22> H  -1.032320000   2.090180000  -0.841890000
| 23> H  -1.284090000   0.839590000   0.017130000
| 24> O   1.737840000   0.885520000  -0.052730000
| 25> H   2.090180000   1.032320000   0.841890000
| 26> H   0.839590000   1.284090000  -0.017130000
| 27> O  -1.737840000  -0.885520000  -0.052730000
| 28> H  -2.090180000  -1.032320000   0.841890000
| 29> H  -0.839590000  -1.284090000  -0.017130000
| 30> O  -0.923410000   1.794470000  -2.768350000
| 31> H  -1.359750000   2.338250000  -3.430940000
| 32> H  -1.303000000   0.879480000  -2.865760000
| 33> *
| 34>
| 35>                          ****END OF INPUT****

CARTESIAN COORDINATES (ANGSTROEM)
---------------------------------
  O      0.923410   -1.794470   -2.768350
  H      1.359750   -2.338250   -3.430940
  H      1.303000   -0.879480   -2.865760
  O     -1.752130   -0.741530   -2.896280
  H     -2.036450   -0.920500   -1.984040
  H     -0.921210   -1.242140   -2.984230
  O     -0.885520    1.737840    0.052730
  H     -1.032320    2.090180   -0.841890
  H     -1.284090    0.839590    0.017130
  O      1.737840    0.885520   -0.052730
  H      2.090180    1.032320    0.841890
  H      0.839590    1.284090   -0.017130
  O     -1.737840   -0.885520   -0.052730
  H     -2.090180   -1.032320    0.841890
  H     -0.839590   -1.284090   -0.017130
  O     -0.923410    1.794470   -2.768350
  H     -1.359750    2.338250   -3.430940
  H     -1.303000    0.879480   -2.865760

 Total Charge           Charge          ....    0
 Multiplicity           Mult            ....    1
 Number of Electrons    NEL             ....   60
 Basis Dimension        Dim             ....  258

ORBITAL ENERGIES
----------------

  NO   OCC          E(Eh)            E(eV)
   0   2.0000     -20.614529      -560.9498
   1   2.0000     -20.588494      -560.2414
   2   2.0000     -20.555289      -559.3378
   3   2.0000     -20.534028      -558.7593
   4   2.0000     -20.526313      -558.5494
   5   2.0000     -20.516314      -558.2773
   6   2.0000      -1.397811       -38.0364
   7   2.0000      -1.367082       -37.2002
   8   2.0000      -1.347390       -36.6643
   9   2.0000      -1.322447       -35.9856
  10   2.0000      -1.311869       -35.6978
  11   2.0000      -1.294853       -35.2347
  12   2.0000      -0.756112       -20.5749
  13   2.0000      -0.734413       -19.9844
  14   2.0000      -0.713217       -19.4076
  15   2.0000      -0.700860       -19.0714
  16   2.0000      -0.692896       -18.8547
  17   2.0000      -0.669484       -18.2176
  18   2.0000      -0.642737       -17.4898
  19   2.0000      -0.608222       -16.5506
  20   2.0000      -0.591292       -16.0899
  21   2.0000      -0.582932       -15.8624
  22   2.0000      -0.553055       -15.0494
  23   2.0000      -0.548358       -14.9216
  24   2.0000      -0.529463       -14.4074
  25   2.0000      -0.526793       -14.3348
  26   2.0000      -0.497153       -13.5282
  27   2.0000      -0.482777       -13.1370
  28   2.0000      -0.472693       -12.8626
  29   2.0000      -0.464091       -12.6286
  30   0.0000       0.099679         2.7124
  31   0.0000       0.125737         3.4215
  32   0.0000       0.158031         4.3002
  33   0.0000       0.169526         4.6130
  34   0.0000       0.198652         5.4056

MULLIKEN ATOMIC CHARGES
-----------------------
   0 O :   -0.710837
   1 H :    0.353873
   2 H :    0.381469
   3 O :   -0.715303
   4 H :    0.379841
   5 H :    0.366621
   6 O :   -0.729241
   7 H :    0.378790
   8 H :    0.346805
   9 O :   -0.730419
  10 H :    0.321627
  11 H :    0.364229
  12 O :   -0.719318
  13 H :    0.369367
  14 H :    0.380247
  15 O :   -0.740172
  16 H :    0.333645
  17 H :    0.368777
Sum of atomic charges:    0.0000000

LOEWDIN ATOMIC CHARGES
----------------------
   0 O :   -0.313727
   1 H :    0.164637
   2 H :    0.195949
   3 O :   -0.285437
   4 H :    0.154522
   5 H :    0.150038
   6 O :   -0.319288
   7 H :    0.150610
   8 H :    0.136042
   9 O :   -0.370059
  10 H :    0.155219
  11 H :    0.142101
  12 O :   -0.278151
  13 H :    0.178451
  14 H :    0.187200
  15 O :   -0.343061
  16 H :    0.152121
  17 H :    0.142834

  Mayer bond orders larger than 0.100000
B(  0-O ,  1-H ) :   0.8408 B(  0-O ,  2-H ) :   0.8135 B(  3-O ,  4-H ) :   0.8141
B(  3-O ,  5-H ) :   0.8014 B(  3-O , 17-H ) :   0.1091 B(  6-O ,  7-H ) :   0.7979
B(  6-O ,  8-H ) :   0.8078 B(  6-O , 11-H ) :   0.1037 B(  9-O , 10-H ) :   0.8612
B(  9-O , 11-H ) :   0.7767 B( 12-O , 13-H ) :   0.8287 B( 12-O , 14-H ) :   0.8126
B( 15-O , 16-H ) :   0.8522 B( 15-O , 17-H ) :   0.7529

MP2 TOTAL ENERGY:     -457.934660333 Eh
FINAL SINGLE POINT ENERGY      -457.934660333008

DIPOLE MOMENT
-------------
                                X             Y             Z
Electronic contribution:     -0.21009      -0.34012      -0.13179
Nuclear contribution   :      0.00102      -1.02005       0.19520
                        -----------------------------------------
Total Dipole Moment    :     -0.20906      -1.36017       0.06341
                        -----------------------------------------
Magnitude (a.u.)       :      1.37760
Magnitude (Debye)      :      3.50159

Rotational constants in cm-1:     0.049870     0.039773     0.035632
Rotational constants in MHz :  1495.066655  1192.375841  1068.207461

                             ****ORCA TERMINATED NORMALLY****
TOTAL RUN TIME: 0 days 0 hours 1 minutes 14 seconds 815 msec
