                         Program Version 4.2.0 -  RELEASE  -
|  1> # 12meoh.boyd.etal.mol1,2,7
|  2> ! MP2 def2-TZVP EnGrad TightSCF
|  3>
|  4> %pal
|  5>     nprocs 6
|  6> end
|  7>
|  8> %maxcore 8000
|  9>
| 10> %scf
| 11>     ConvForced true
| 12> end
| 13>
| 14> *xyz 0 1
| 15> O   0.666045193  -2.600503172   0.138317521
| 16> H  -0.227115049  -2.712051982  -0.281868004
| 17> C   0.490021232  -1.851247678   1.341189459
| 18> H   1.466500502  -1.466176022   1.645844415
| 19> H   0.097564527  -2.488364683   2.146902740
| 20> H  -0.187588112  -1.000787499   1.200739571
| 21> O  -3.839777402   2.233595098   0.660436763
| 22> H  -2.958345897   1.907036203   0.973588449
| 23> C  -3.600368059   3.168790682  -0.390480452
| 24> H  -4.551709193   3.344148967  -0.901254863
| 25> H  -2.868237594   2.789240199  -1.113617525
| 26> H  -3.243594915   4.128998607   0.009549480
| 27> O   4.310535586  -1.588322800   0.656128299
| 28> H   3.804372199  -1.630404735  -0.196849819
| 29> C   4.312298137  -2.894980854   1.222112691
| 30> H   4.713177833  -2.819907076   2.237066773
| 31> H   4.957796734  -3.574699304   0.648211180
| 32> H   3.302735989  -3.324433205   1.269756773
| 33> *
| 34>
| 35>                          ****END OF INPUT****

CARTESIAN COORDINATES (ANGSTROEM)
---------------------------------
  O      0.666045   -2.600503    0.138318
  H     -0.227115   -2.712052   -0.281868
  C      0.490021   -1.851248    1.341189
  H      1.466501   -1.466176    1.645844
  H      0.097565   -2.488365    2.146903
  H     -0.187588   -1.000787    1.200740
  O     -3.839777    2.233595    0.660437
  H     -2.958346    1.907036    0.973588
  C     -3.600368    3.168791   -0.390480
  H     -4.551709    3.344149   -0.901255
  H     -2.868238    2.789240   -1.113618
  H     -3.243595    4.128999    0.009549
  O      4.310536   -1.588323    0.656128
  H      3.804372   -1.630405   -0.196850
  C      4.312298   -2.894981    1.222113
  H      4.713178   -2.819907    2.237067
  H      4.957797   -3.574699    0.648211
  H      3.302736   -3.324433    1.269757

 Total Charge           Charge          ....    0
 Multiplicity           Mult            ....    1
 Number of Electrons    NEL             ....   54
 Basis Dimension        Dim             ....  258

ORBITAL ENERGIES
----------------

  NO   OCC          E(Eh)            E(eV)
   0   2.0000     -20.566552      -559.6443
   1   2.0000     -20.560684      -559.4847
   2   2.0000     -20.550959      -559.2200
   3   2.0000     -11.276965      -306.8618
   4   2.0000     -11.274923      -306.8062
   5   2.0000     -11.263652      -306.4996
   6   2.0000      -1.354492       -36.8576
   7   2.0000      -1.350097       -36.7380
   8   2.0000      -1.340444       -36.4753
   9   2.0000      -0.926307       -25.2061
  10   2.0000      -0.922874       -25.1127
  11   2.0000      -0.912250       -24.8236
  12   2.0000      -0.690546       -18.7907
  13   2.0000      -0.685178       -18.6446
  14   2.0000      -0.674013       -18.3408
  15   2.0000      -0.623790       -16.9742
  16   2.0000      -0.620022       -16.8717
  17   2.0000      -0.612369       -16.6634
  18   2.0000      -0.594501       -16.1772
  19   2.0000      -0.593337       -16.1455
  20   2.0000      -0.584246       -15.8982
  21   2.0000      -0.508787       -13.8448
  22   2.0000      -0.505019       -13.7423
  23   2.0000      -0.493943       -13.4409
  24   2.0000      -0.457614       -12.4523
  25   2.0000      -0.452706       -12.3188
  26   2.0000      -0.442217       -12.0333
  27   0.0000       0.106500         2.8980
  28   0.0000       0.132825         3.6143
  29   0.0000       0.160702         4.3729
  30   0.0000       0.165242         4.4965
  31   0.0000       0.178063         4.8453

MULLIKEN ATOMIC CHARGES
-----------------------
   0 O :   -0.506724
   1 H :    0.324786
   2 C :   -0.193579
   3 H :    0.149529
   4 H :    0.115894
   5 H :    0.107813
   6 O :   -0.496052
   7 H :    0.319612
   8 C :   -0.175918
   9 H :    0.130003
  10 H :    0.110592
  11 H :    0.111781
  12 O :   -0.509342
  13 H :    0.330129
  14 C :   -0.183577
  15 H :    0.124654
  16 H :    0.112889
  17 H :    0.127509
Sum of atomic charges:   -0.0000000

LOEWDIN ATOMIC CHARGES
----------------------
   0 O :   -0.115649
   1 H :    0.191330
   2 C :   -0.381342
   3 H :    0.111609
   4 H :    0.097701
   5 H :    0.095131
   6 O :   -0.111087
   7 H :    0.187141
   8 C :   -0.378297
   9 H :    0.110082
  10 H :    0.095704
  11 H :    0.096436
  12 O :   -0.110272
  13 H :    0.192099
  14 C :   -0.383247
  15 H :    0.108011
  16 H :    0.096232
  17 H :    0.098418

  Mayer bond orders larger than 0.100000
B(  0-O ,  1-H ) :   0.8409 B(  0-O ,  2-C ) :   0.9112 B(  2-C ,  3-H ) :   0.9330
B(  2-C ,  4-H ) :   0.9390 B(  2-C ,  5-H ) :   0.9397 B(  6-O ,  7-H ) :   0.8449
B(  6-O ,  8-C ) :   0.9247 B(  8-C ,  9-H ) :   0.9378 B(  8-C , 10-H ) :   0.9409
B(  8-C , 11-H ) :   0.9379 B( 12-O , 13-H ) :   0.8377 B( 12-O , 14-C ) :   0.9113
B( 14-C , 15-H ) :   0.9386 B( 14-C , 16-H ) :   0.9413 B( 14-C , 17-H ) :   0.9351

MP2 TOTAL ENERGY:     -346.524150190 Eh
FINAL SINGLE POINT ENERGY      -346.524150189837

DIPOLE MOMENT
-------------
                                X             Y             Z
Electronic contribution:     -0.03826      -0.39921      -0.80132
Nuclear contribution   :     -0.29008       0.26441       0.47667
                        -----------------------------------------
Total Dipole Moment    :     -0.32834      -0.13480      -0.32466
                        -----------------------------------------
Magnitude (a.u.)       :      0.48102
Magnitude (Debye)      :      1.22265

Rotational constants in cm-1:     0.126592     0.011114     0.010593
Rotational constants in MHz :  3795.139860   333.196103   317.557897

                             ****ORCA TERMINATED NORMALLY****
TOTAL RUN TIME: 0 days 0 hours 0 minutes 53 seconds 529 msec
