                         Program Version 4.2.0 -  RELEASE  -
|  1> # 12meoh.boyd.etal.mol0,10
|  2> ! MP2 def2-TZVP EnGrad TightSCF
|  3>
|  4> %pal
|  5>     nprocs 6
|  6> end
|  7>
|  8> %maxcore 8000
|  9>
| 10> %scf
| 11>     ConvForced true
| 12> end
| 13>
| 14> *xyz 0 1
| 15> O  -1.776108874  -2.741384797  -1.019308298
| 16> H  -2.520094035  -2.452295987  -0.420778302
| 17> C  -2.174025166  -3.952700964  -1.647004581
| 18> H  -1.359803895  -4.272673416  -2.304149236
| 19> H  -3.075973971  -3.808692420  -2.256751112
| 20> H  -2.370225393  -4.752784761  -0.918966137
| 21> O  -5.201143618   0.064582726  -0.172223772
| 22> H  -4.686891530   0.869258890   0.107806143
| 23> C  -6.513192168   0.171391798   0.359883449
| 24> H  -7.049381312  -0.749234190   0.111361174
| 25> H  -7.057741163   1.017801101  -0.081819420
| 26> H  -6.514770575   0.292264928   1.453058834
| 27> *
| 28>
| 29>                          ****END OF INPUT****

CARTESIAN COORDINATES (ANGSTROEM)
---------------------------------
  O     -1.776109   -2.741385   -1.019308
  H     -2.520094   -2.452296   -0.420778
  C     -2.174025   -3.952701   -1.647005
  H     -1.359804   -4.272673   -2.304149
  H     -3.075974   -3.808692   -2.256751
  H     -2.370225   -4.752785   -0.918966
  O     -5.201144    0.064583   -0.172224
  H     -4.686892    0.869259    0.107806
  C     -6.513192    0.171392    0.359883
  H     -7.049381   -0.749234    0.111361
  H     -7.057741    1.017801   -0.081819
  H     -6.514771    0.292265    1.453059

 Total Charge           Charge          ....    0
 Multiplicity           Mult            ....    1
 Number of Electrons    NEL             ....   36
 Basis Dimension        Dim             ....  172

ORBITAL ENERGIES
----------------

  NO   OCC          E(Eh)            E(eV)
   0   2.0000     -20.563546      -559.5625
   1   2.0000     -20.548733      -559.1595
   2   2.0000     -11.276151      -306.8397
   3   2.0000     -11.263972      -306.5083
   4   2.0000      -1.353454       -36.8294
   5   2.0000      -1.338036       -36.4098
   6   2.0000      -0.924156       -25.1476
   7   2.0000      -0.911251       -24.7964
   8   2.0000      -0.687793       -18.7158
   9   2.0000      -0.672872       -18.3098
  10   2.0000      -0.621924       -16.9234
  11   2.0000      -0.609120       -16.5750
  12   2.0000      -0.596998       -16.2451
  13   2.0000      -0.583034       -15.8652
  14   2.0000      -0.505362       -13.7516
  15   2.0000      -0.492158       -13.3923
  16   2.0000      -0.454082       -12.3562
  17   2.0000      -0.440357       -11.9827
  18   0.0000       0.124072         3.3762
  19   0.0000       0.150343         4.0910
  20   0.0000       0.170796         4.6476
  21   0.0000       0.188993         5.1428
  22   0.0000       0.224027         6.0961

MULLIKEN ATOMIC CHARGES
-----------------------
   0 O :   -0.500887
   1 H :    0.327255
   2 C :   -0.171539
   3 H :    0.125750
   4 H :    0.111516
   5 H :    0.105715
   6 O :   -0.500399
   7 H :    0.325361
   8 C :   -0.173364
   9 H :    0.128596
  10 H :    0.111415
  11 H :    0.110581
Sum of atomic charges:   -0.0000000

LOEWDIN ATOMIC CHARGES
----------------------
   0 O :   -0.110057
   1 H :    0.194407
   2 C :   -0.384865
   3 H :    0.109032
   4 H :    0.095855
   5 H :    0.094114
   6 O :   -0.109128
   7 H :    0.192600
   8 C :   -0.384309
   9 H :    0.110231
  10 H :    0.096309
  11 H :    0.095810

  Mayer bond orders larger than 0.100000
B(  0-O ,  1-H ) :   0.8369 B(  0-O ,  2-C ) :   0.9305 B(  2-C ,  3-H ) :   0.9378
B(  2-C ,  4-H ) :   0.9396 B(  2-C ,  5-H ) :   0.9386 B(  6-O ,  7-H ) :   0.8396
B(  6-O ,  8-C ) :   0.9229 B(  8-C ,  9-H ) :   0.9380 B(  8-C , 10-H ) :   0.9384
B(  8-C , 11-H ) :   0.9383

MP2 TOTAL ENERGY:     -231.014776458 Eh
FINAL SINGLE POINT ENERGY      -231.014776457718

DIPOLE MOMENT
-------------
                                X             Y             Z
Electronic contribution:      2.22945       1.29006       0.00113
Nuclear contribution   :     -3.09800      -1.02137       0.50867
                        -----------------------------------------
Total Dipole Moment    :     -0.86855       0.26868       0.50980
                        -----------------------------------------
Magnitude (a.u.)       :      1.04233
Magnitude (Debye)      :      2.64940

Rotational constants in cm-1:     0.628823     0.034735     0.033587
Rotational constants in MHz : 18851.630461  1041.337782  1006.923377

                             ****ORCA TERMINATED NORMALLY****
TOTAL RUN TIME: 0 days 0 hours 0 minutes 19 seconds 444 msec
