                         Program Version 4.2.0 -  RELEASE  -
|  1> # 12h2o.su.etal.mol1,2,3,7,11
|  2> ! MP2 def2-TZVP EnGrad TightSCF
|  3>
|  4> %pal
|  5>     nprocs 6
|  6> end
|  7>
|  8> %maxcore 8000
|  9>
| 10> %scf
| 11>     ConvForced true
| 12> end
| 13>
| 14> *xyz 0 1
| 15> O  -1.794470000  -0.923410000   2.768350000
| 16> H  -2.338250000  -1.359750000   3.430940000
| 17> H  -0.879480000  -1.303000000   2.865760000
| 18> O   0.923410000  -1.794470000  -2.768350000
| 19> H   1.359750000  -2.338250000  -3.430940000
| 20> H   1.303000000  -0.879480000  -2.865760000
| 21> O  -1.752130000  -0.741530000  -2.896280000
| 22> H  -2.036450000  -0.920500000  -1.984040000
| 23> H  -0.921210000  -1.242140000  -2.984230000
| 24> O  -1.737840000  -0.885520000  -0.052730000
| 25> H  -2.090180000  -1.032320000   0.841890000
| 26> H  -0.839590000  -1.284090000  -0.017130000
| 27> O  -0.741530000   1.752130000   2.896280000
| 28> H  -0.920500000   2.036450000   1.984040000
| 29> H  -1.242140000   0.921210000   2.984230000
| 30> *
| 31>
| 32>                          ****END OF INPUT****

CARTESIAN COORDINATES (ANGSTROEM)
---------------------------------
  O     -1.794470   -0.923410    2.768350
  H     -2.338250   -1.359750    3.430940
  H     -0.879480   -1.303000    2.865760
  O      0.923410   -1.794470   -2.768350
  H      1.359750   -2.338250   -3.430940
  H      1.303000   -0.879480   -2.865760
  O     -1.752130   -0.741530   -2.896280
  H     -2.036450   -0.920500   -1.984040
  H     -0.921210   -1.242140   -2.984230
  O     -1.737840   -0.885520   -0.052730
  H     -2.090180   -1.032320    0.841890
  H     -0.839590   -1.284090   -0.017130
  O     -0.741530    1.752130    2.896280
  H     -0.920500    2.036450    1.984040
  H     -1.242140    0.921210    2.984230

 Total Charge           Charge          ....    0
 Multiplicity           Mult            ....    1
 Number of Electrons    NEL             ....   50
 Basis Dimension        Dim             ....  215

ORBITAL ENERGIES
----------------

  NO   OCC          E(Eh)            E(eV)
   0   2.0000     -20.621853      -561.1492
   1   2.0000     -20.589201      -560.2606
   2   2.0000     -20.559432      -559.4506
   3   2.0000     -20.536595      -558.8292
   4   2.0000     -20.497201      -557.7572
   5   2.0000      -1.401980       -38.1498
   6   2.0000      -1.366821       -37.1931
   7   2.0000      -1.340763       -36.4840
   8   2.0000      -1.319141       -35.8956
   9   2.0000      -1.282627       -34.9021
  10   2.0000      -0.767618       -20.8880
  11   2.0000      -0.733906       -19.9706
  12   2.0000      -0.711212       -19.3531
  13   2.0000      -0.691053       -18.8045
  14   2.0000      -0.660694       -17.9784
  15   2.0000      -0.637914       -17.3585
  16   2.0000      -0.606593       -16.5062
  17   2.0000      -0.590978       -16.0813
  18   2.0000      -0.566321       -15.4104
  19   2.0000      -0.545550       -14.8452
  20   2.0000      -0.536485       -14.5985
  21   2.0000      -0.513656       -13.9773
  22   2.0000      -0.500737       -13.6258
  23   2.0000      -0.484138       -13.1741
  24   2.0000      -0.447267       -12.1707
  25   0.0000       0.086457         2.3526
  26   0.0000       0.111718         3.0400
  27   0.0000       0.152108         4.1391
  28   0.0000       0.171469         4.6659
  29   0.0000       0.183405         4.9907

MULLIKEN ATOMIC CHARGES
-----------------------
   0 O :   -0.711850
   1 H :    0.367197
   2 H :    0.367967
   3 O :   -0.697276
   4 H :    0.353239
   5 H :    0.361773
   6 O :   -0.727209
   7 H :    0.365985
   8 H :    0.337764
   9 O :   -0.704500
  10 H :    0.368553
  11 H :    0.332701
  12 O :   -0.705500
  13 H :    0.338178
  14 H :    0.352978
Sum of atomic charges:   -0.0000000

LOEWDIN ATOMIC CHARGES
----------------------
   0 O :   -0.286215
   1 H :    0.169297
   2 H :    0.190935
   3 O :   -0.312848
   4 H :    0.163652
   5 H :    0.188615
   6 O :   -0.357388
   7 H :    0.149191
   8 H :    0.138870
   9 O :   -0.323187
  10 H :    0.149884
  11 H :    0.167653
  12 O :   -0.346970
  13 H :    0.163998
  14 H :    0.144513

  Mayer bond orders larger than 0.100000
B(  0-O ,  1-H ) :   0.8303 B(  0-O ,  2-H ) :   0.8227 B(  3-O ,  4-H ) :   0.8413
B(  3-O ,  5-H ) :   0.8298 B(  6-O ,  7-H ) :   0.8252 B(  6-O ,  8-H ) :   0.8354
B(  9-O , 10-H ) :   0.8152 B(  9-O , 11-H ) :   0.8476 B( 12-O , 13-H ) :   0.8521
B( 12-O , 14-H ) :   0.8290

MP2 TOTAL ENERGY:     -381.590185613 Eh
FINAL SINGLE POINT ENERGY      -381.590185613237

DIPOLE MOMENT
-------------
                                X             Y             Z
Electronic contribution:     -0.15582       0.09424       0.18425
Nuclear contribution   :      1.33184      -1.84474       0.77428
                        -----------------------------------------
Total Dipole Moment    :      1.17601      -1.75050       0.95853
                        -----------------------------------------
Magnitude (a.u.)       :      2.31647
Magnitude (Debye)      :      5.88800

Rotational constants in cm-1:     0.105127     0.023364     0.022659
Rotational constants in MHz :  3151.641510   700.431087   679.308518

                             ****ORCA TERMINATED NORMALLY****
TOTAL RUN TIME: 0 days 0 hours 0 minutes 28 seconds 927 msec
