                         Program Version 4.2.0 -  RELEASE  -
|  1> # 12h2o.su.etal.mol0,2,3,8,9,10
|  2> ! MP2 def2-TZVP EnGrad TightSCF
|  3>
|  4> %pal
|  5>     nprocs 6
|  6> end
|  7>
|  8> %maxcore 8000
|  9>
| 10> %scf
| 11>     ConvForced true
| 12> end
| 13>
| 14> *xyz 0 1
| 15> O   1.794470000   0.923410000   2.768350000
| 16> H   2.338250000   1.359750000   3.430940000
| 17> H   0.879480000   1.303000000   2.865760000
| 18> O   0.923410000  -1.794470000  -2.768350000
| 19> H   1.359750000  -2.338250000  -3.430940000
| 20> H   1.303000000  -0.879480000  -2.865760000
| 21> O  -1.752130000  -0.741530000  -2.896280000
| 22> H  -2.036450000  -0.920500000  -1.984040000
| 23> H  -0.921210000  -1.242140000  -2.984230000
| 24> O   1.752130000   0.741530000  -2.896280000
| 25> H   2.036450000   0.920500000  -1.984040000
| 26> H   0.921210000   1.242140000  -2.984230000
| 27> O   0.741530000  -1.752130000   2.896280000
| 28> H   0.920500000  -2.036450000   1.984040000
| 29> H   1.242140000  -0.921210000   2.984230000
| 30> O  -0.923410000   1.794470000  -2.768350000
| 31> H  -1.359750000   2.338250000  -3.430940000
| 32> H  -1.303000000   0.879480000  -2.865760000
| 33> *
| 34>
| 35>                          ****END OF INPUT****

CARTESIAN COORDINATES (ANGSTROEM)
---------------------------------
  O      1.794470    0.923410    2.768350
  H      2.338250    1.359750    3.430940
  H      0.879480    1.303000    2.865760
  O      0.923410   -1.794470   -2.768350
  H      1.359750   -2.338250   -3.430940
  H      1.303000   -0.879480   -2.865760
  O     -1.752130   -0.741530   -2.896280
  H     -2.036450   -0.920500   -1.984040
  H     -0.921210   -1.242140   -2.984230
  O      1.752130    0.741530   -2.896280
  H      2.036450    0.920500   -1.984040
  H      0.921210    1.242140   -2.984230
  O      0.741530   -1.752130    2.896280
  H      0.920500   -2.036450    1.984040
  H      1.242140   -0.921210    2.984230
  O     -0.923410    1.794470   -2.768350
  H     -1.359750    2.338250   -3.430940
  H     -1.303000    0.879480   -2.865760

 Total Charge           Charge          ....    0
 Multiplicity           Mult            ....    1
 Number of Electrons    NEL             ....   60
 Basis Dimension        Dim             ....  258

ORBITAL ENERGIES
----------------

  NO   OCC          E(Eh)            E(eV)
   0   2.0000     -20.593527      -560.3784
   1   2.0000     -20.569496      -559.7244
   2   2.0000     -20.569494      -559.7244
   3   2.0000     -20.548809      -559.1615
   4   2.0000     -20.548517      -559.1536
   5   2.0000     -20.531079      -558.6791
   6   2.0000      -1.371151       -37.3109
   7   2.0000      -1.364952       -37.1422
   8   2.0000      -1.357741       -36.9460
   9   2.0000      -1.332922       -36.2706
  10   2.0000      -1.326059       -36.0839
  11   2.0000      -1.313573       -35.7441
  12   2.0000      -0.738291       -20.0899
  13   2.0000      -0.724390       -19.7117
  14   2.0000      -0.722077       -19.6487
  15   2.0000      -0.712275       -19.3820
  16   2.0000      -0.708491       -19.2790
  17   2.0000      -0.683253       -18.5923
  18   2.0000      -0.622247       -16.9322
  19   2.0000      -0.609903       -16.5963
  20   2.0000      -0.595660       -16.2087
  21   2.0000      -0.581534       -15.8244
  22   2.0000      -0.558255       -15.1909
  23   2.0000      -0.557254       -15.1637
  24   2.0000      -0.528222       -14.3737
  25   2.0000      -0.510046       -13.8790
  26   2.0000      -0.509947       -13.8764
  27   2.0000      -0.499711       -13.5978
  28   2.0000      -0.498124       -13.5546
  29   2.0000      -0.478843       -13.0300
  30   0.0000       0.104401         2.8409
  31   0.0000       0.121289         3.3004
  32   0.0000       0.156319         4.2537
  33   0.0000       0.160255         4.3608
  34   0.0000       0.169010         4.5990

MULLIKEN ATOMIC CHARGES
-----------------------
   0 O :   -0.696028
   1 H :    0.354361
   2 H :    0.361552
   3 O :   -0.744555
   4 H :    0.342039
   5 H :    0.379024
   6 O :   -0.708785
   7 H :    0.354136
   8 H :    0.378473
   9 O :   -0.709327
  10 H :    0.354779
  11 H :    0.378023
  12 O :   -0.707013
  13 H :    0.332143
  14 H :    0.354962
  15 O :   -0.744309
  16 H :    0.341445
  17 H :    0.379080
Sum of atomic charges:   -0.0000000

LOEWDIN ATOMIC CHARGES
----------------------
   0 O :   -0.311298
   1 H :    0.164323
   2 H :    0.188825
   3 O :   -0.342226
   4 H :    0.155987
   5 H :    0.144909
   6 O :   -0.284387
   7 H :    0.171507
   8 H :    0.154451
   9 O :   -0.284633
  10 H :    0.171720
  11 H :    0.154276
  12 O :   -0.349464
  13 H :    0.161545
  14 H :    0.146052
  15 O :   -0.342197
  16 H :    0.155660
  17 H :    0.144951

  Mayer bond orders larger than 0.100000
B(  0-O ,  1-H ) :   0.8406 B(  0-O ,  2-H ) :   0.8301 B(  3-O ,  4-H ) :   0.8480
B(  3-O ,  5-H ) :   0.7492 B(  5-H ,  9-O ) :   0.1093 B(  6-O ,  7-H ) :   0.8400
B(  6-O ,  8-H ) :   0.7814 B(  6-O , 17-H ) :   0.1097 B(  9-O , 10-H ) :   0.8395
B(  9-O , 11-H ) :   0.7817 B( 12-O , 13-H ) :   0.8564 B( 12-O , 14-H ) :   0.8208
B( 15-O , 16-H ) :   0.8483 B( 15-O , 17-H ) :   0.7491

MP2 TOTAL ENERGY:     -457.931994532 Eh
FINAL SINGLE POINT ENERGY      -457.931994532412

DIPOLE MOMENT
-------------
                                X             Y             Z
Electronic contribution:      0.03109       0.00866      -0.00325
Nuclear contribution   :      0.25668       1.13412       0.05351
                        -----------------------------------------
Total Dipole Moment    :      0.28776       1.14278       0.05026
                        -----------------------------------------
Magnitude (a.u.)       :      1.17953
Magnitude (Debye)      :      2.99812

Rotational constants in cm-1:     0.048438     0.017429     0.016343
Rotational constants in MHz :  1452.126020   522.502349   489.940797

                             ****ORCA TERMINATED NORMALLY****
TOTAL RUN TIME: 0 days 0 hours 0 minutes 53 seconds 647 msec
