                         Program Version 4.2.0 -  RELEASE  -
|  1> # 12h2o.su.etal.mol3,5,6,7,10,11
|  2> ! MP2 def2-TZVP EnGrad TightSCF
|  3>
|  4> %pal
|  5>     nprocs 6
|  6> end
|  7>
|  8> %maxcore 8000
|  9>
| 10> %scf
| 11>     ConvForced true
| 12> end
| 13>
| 14> *xyz 0 1
| 15> O  -1.752130000  -0.741530000  -2.896280000
| 16> H  -2.036450000  -0.920500000  -1.984040000
| 17> H  -0.921210000  -1.242140000  -2.984230000
| 18> O   0.885520000  -1.737840000   0.052730000
| 19> H   1.284090000  -0.839590000   0.017130000
| 20> H   1.032320000  -2.090180000  -0.841890000
| 21> O   1.737840000   0.885520000  -0.052730000
| 22> H   2.090180000   1.032320000   0.841890000
| 23> H   0.839590000   1.284090000  -0.017130000
| 24> O  -1.737840000  -0.885520000  -0.052730000
| 25> H  -2.090180000  -1.032320000   0.841890000
| 26> H  -0.839590000  -1.284090000  -0.017130000
| 27> O  -0.923410000   1.794470000  -2.768350000
| 28> H  -1.359750000   2.338250000  -3.430940000
| 29> H  -1.303000000   0.879480000  -2.865760000
| 30> O  -0.741530000   1.752130000   2.896280000
| 31> H  -0.920500000   2.036450000   1.984040000
| 32> H  -1.242140000   0.921210000   2.984230000
| 33> *
| 34>
| 35>                          ****END OF INPUT****

CARTESIAN COORDINATES (ANGSTROEM)
---------------------------------
  O     -1.752130   -0.741530   -2.896280
  H     -2.036450   -0.920500   -1.984040
  H     -0.921210   -1.242140   -2.984230
  O      0.885520   -1.737840    0.052730
  H      1.284090   -0.839590    0.017130
  H      1.032320   -2.090180   -0.841890
  O      1.737840    0.885520   -0.052730
  H      2.090180    1.032320    0.841890
  H      0.839590    1.284090   -0.017130
  O     -1.737840   -0.885520   -0.052730
  H     -2.090180   -1.032320    0.841890
  H     -0.839590   -1.284090   -0.017130
  O     -0.923410    1.794470   -2.768350
  H     -1.359750    2.338250   -3.430940
  H     -1.303000    0.879480   -2.865760
  O     -0.741530    1.752130    2.896280
  H     -0.920500    2.036450    1.984040
  H     -1.242140    0.921210    2.984230

 Total Charge           Charge          ....    0
 Multiplicity           Mult            ....    1
 Number of Electrons    NEL             ....   60
 Basis Dimension        Dim             ....  258

ORBITAL ENERGIES
----------------

  NO   OCC          E(Eh)            E(eV)
   0   2.0000     -20.596436      -560.4575
   1   2.0000     -20.577673      -559.9469
   2   2.0000     -20.577375      -559.9388
   3   2.0000     -20.571306      -559.7737
   4   2.0000     -20.568897      -559.7081
   5   2.0000     -20.514584      -558.2302
   6   2.0000      -1.380136       -37.5554
   7   2.0000      -1.365479       -37.1566
   8   2.0000      -1.359464       -36.9929
   9   2.0000      -1.356308       -36.9070
  10   2.0000      -1.346247       -36.6333
  11   2.0000      -1.296506       -35.2797
  12   2.0000      -0.734382       -19.9836
  13   2.0000      -0.730150       -19.8684
  14   2.0000      -0.728334       -19.8190
  15   2.0000      -0.719070       -19.5669
  16   2.0000      -0.716279       -19.4909
  17   2.0000      -0.684398       -18.6234
  18   2.0000      -0.630732       -17.1631
  19   2.0000      -0.614555       -16.7229
  20   2.0000      -0.597136       -16.2489
  21   2.0000      -0.593658       -16.1542
  22   2.0000      -0.582852       -15.8602
  23   2.0000      -0.545573       -14.8458
  24   2.0000      -0.533666       -14.5218
  25   2.0000      -0.522898       -14.2288
  26   2.0000      -0.520978       -14.1765
  27   2.0000      -0.516377       -14.0513
  28   2.0000      -0.500519       -13.6198
  29   2.0000      -0.465193       -12.6585
  30   0.0000       0.079347         2.1591
  31   0.0000       0.111935         3.0459
  32   0.0000       0.131333         3.5737
  33   0.0000       0.161680         4.3995
  34   0.0000       0.175513         4.7759

MULLIKEN ATOMIC CHARGES
-----------------------
   0 O :   -0.690364
   1 H :    0.389107
   2 H :    0.334381
   3 O :   -0.708977
   4 H :    0.374555
   5 H :    0.343361
   6 O :   -0.685963
   7 H :    0.359932
   8 H :    0.366613
   9 O :   -0.729824
  10 H :    0.336013
  11 H :    0.354846
  12 O :   -0.740010
  13 H :    0.324164
  14 H :    0.370385
  15 O :   -0.672260
  16 H :    0.338662
  17 H :    0.335379
Sum of atomic charges:    0.0000000

LOEWDIN ATOMIC CHARGES
----------------------
   0 O :   -0.275763
   1 H :    0.160259
   2 H :    0.164469
   3 O :   -0.307838
   4 H :    0.147360
   5 H :    0.163767
   6 O :   -0.284347
   7 H :    0.173976
   8 H :    0.180730
   9 O :   -0.341622
  10 H :    0.161321
  11 H :    0.142006
  12 O :   -0.376460
  13 H :    0.148333
  14 H :    0.142702
  15 O :   -0.327578
  16 H :    0.163489
  17 H :    0.165197

  Mayer bond orders larger than 0.100000
B(  0-O ,  1-H ) :   0.7962 B(  0-O ,  2-H ) :   0.8502 B(  3-O ,  4-H ) :   0.7683
B(  3-O ,  5-H ) :   0.8459 B(  3-O , 11-H ) :   0.1082 B(  6-O ,  7-H ) :   0.8346
B(  6-O ,  8-H ) :   0.8224 B(  9-O , 10-H ) :   0.8506 B(  9-O , 11-H ) :   0.7668
B( 12-O , 13-H ) :   0.8609 B( 12-O , 14-H ) :   0.7771 B( 15-O , 16-H ) :   0.8501
B( 15-O , 17-H ) :   0.8529

MP2 TOTAL ENERGY:     -457.919854909 Eh
FINAL SINGLE POINT ENERGY      -457.919854909154

DIPOLE MOMENT
-------------
                                X             Y             Z
Electronic contribution:      0.30118       0.05330       0.18469
Nuclear contribution   :     -0.33589      -0.87521       0.14168
                        -----------------------------------------
Total Dipole Moment    :     -0.03471      -0.82191       0.32638
                        -----------------------------------------
Magnitude (a.u.)       :      0.88502
Magnitude (Debye)      :      2.24954

Rotational constants in cm-1:     0.047114     0.027757     0.026154
Rotational constants in MHz :  1412.427738   832.137908   784.063181

                             ****ORCA TERMINATED NORMALLY****
TOTAL RUN TIME: 0 days 0 hours 1 minutes 0 seconds 428 msec
