                         Program Version 4.2.0 -  RELEASE  -
|  1> # 12h2o.su.etal.mol9,10,11
|  2> ! MP2 def2-TZVP EnGrad TightSCF
|  3>
|  4> %pal
|  5>     nprocs 6
|  6> end
|  7>
|  8> %maxcore 8000
|  9>
| 10> %scf
| 11>     ConvForced true
| 12> end
| 13>
| 14> *xyz 0 1
| 15> O   0.741530000  -1.752130000   2.896280000
| 16> H   0.920500000  -2.036450000   1.984040000
| 17> H   1.242140000  -0.921210000   2.984230000
| 18> O  -0.923410000   1.794470000  -2.768350000
| 19> H  -1.359750000   2.338250000  -3.430940000
| 20> H  -1.303000000   0.879480000  -2.865760000
| 21> O  -0.741530000   1.752130000   2.896280000
| 22> H  -0.920500000   2.036450000   1.984040000
| 23> H  -1.242140000   0.921210000   2.984230000
| 24> *
| 25>
| 26>                          ****END OF INPUT****

CARTESIAN COORDINATES (ANGSTROEM)
---------------------------------
  O      0.741530   -1.752130    2.896280
  H      0.920500   -2.036450    1.984040
  H      1.242140   -0.921210    2.984230
  O     -0.923410    1.794470   -2.768350
  H     -1.359750    2.338250   -3.430940
  H     -1.303000    0.879480   -2.865760
  O     -0.741530    1.752130    2.896280
  H     -0.920500    2.036450    1.984040
  H     -1.242140    0.921210    2.984230

 Total Charge           Charge          ....    0
 Multiplicity           Mult            ....    1
 Number of Electrons    NEL             ....   30
 Basis Dimension        Dim             ....  129

ORBITAL ENERGIES
----------------

  NO   OCC          E(Eh)            E(eV)
   0   2.0000     -20.571266      -559.7726
   1   2.0000     -20.561437      -559.5051
   2   2.0000     -20.558489      -559.4249
   3   2.0000      -1.346584       -36.6424
   4   2.0000      -1.340664       -36.4813
   5   2.0000      -1.337649       -36.3993
   6   2.0000      -0.715041       -19.4572
   7   2.0000      -0.703667       -19.1477
   8   2.0000      -0.699790       -19.0422
   9   2.0000      -0.582669       -15.8552
  10   2.0000      -0.578522       -15.7424
  11   2.0000      -0.575583       -15.6624
  12   2.0000      -0.514494       -14.0001
  13   2.0000      -0.507607       -13.8127
  14   2.0000      -0.500896       -13.6301
  15   0.0000       0.112385         3.0581
  16   0.0000       0.121585         3.3085
  17   0.0000       0.154233         4.1969
  18   0.0000       0.187738         5.1086
  19   0.0000       0.208478         5.6730

MULLIKEN ATOMIC CHARGES
-----------------------
   0 O :   -0.682193
   1 H :    0.335207
   2 H :    0.346905
   3 O :   -0.683917
   4 H :    0.341706
   5 H :    0.342364
   6 O :   -0.683717
   7 H :    0.339861
   8 H :    0.343785
Sum of atomic charges:    0.0000000

LOEWDIN ATOMIC CHARGES
----------------------
   0 O :   -0.333168
   1 H :    0.164439
   2 H :    0.168669
   3 O :   -0.339680
   4 H :    0.159115
   5 H :    0.180652
   6 O :   -0.333599
   7 H :    0.166349
   8 H :    0.167222

  Mayer bond orders larger than 0.100000
B(  0-O ,  1-H ) :   0.8541 B(  0-O ,  2-H ) :   0.8440 B(  3-O ,  4-H ) :   0.8516
B(  3-O ,  5-H ) :   0.8460 B(  6-O ,  7-H ) :   0.8512 B(  6-O ,  8-H ) :   0.8458

MP2 TOTAL ENERGY:     -228.941630437 Eh
FINAL SINGLE POINT ENERGY      -228.941630436633

DIPOLE MOMENT
-------------
                                X             Y             Z
Electronic contribution:      0.10704       0.06611       0.30651
Nuclear contribution   :     -0.67915      -0.30898      -2.00481
                        -----------------------------------------
Total Dipole Moment    :     -0.57211      -0.24287      -1.69829
                        -----------------------------------------
Magnitude (a.u.)       :      1.80845
Magnitude (Debye)      :      4.59672

Rotational constants in cm-1:     0.149738     0.036867     0.029761
Rotational constants in MHz :  4489.046306  1105.237647   892.210400

                             ****ORCA TERMINATED NORMALLY****
TOTAL RUN TIME: 0 days 0 hours 0 minutes 8 seconds 707 msec
