                         Program Version 4.2.0 -  RELEASE  -
|  1> # 12h2o.su.etal.mol0,3,4,5,7,8,10,11
|  2> ! MP2 def2-TZVP EnGrad TightSCF
|  3>
|  4> %pal
|  5>     nprocs 6
|  6> end
|  7>
|  8> %maxcore 8000
|  9>
| 10> %scf
| 11>     ConvForced true
| 12> end
| 13>
| 14> *xyz 0 1
| 15> O   1.794470000   0.923410000   2.768350000
| 16> H   2.338250000   1.359750000   3.430940000
| 17> H   0.879480000   1.303000000   2.865760000
| 18> O  -1.752130000  -0.741530000  -2.896280000
| 19> H  -2.036450000  -0.920500000  -1.984040000
| 20> H  -0.921210000  -1.242140000  -2.984230000
| 21> O  -0.885520000   1.737840000   0.052730000
| 22> H  -1.032320000   2.090180000  -0.841890000
| 23> H  -1.284090000   0.839590000   0.017130000
| 24> O   0.885520000  -1.737840000   0.052730000
| 25> H   1.284090000  -0.839590000   0.017130000
| 26> H   1.032320000  -2.090180000  -0.841890000
| 27> O  -1.737840000  -0.885520000  -0.052730000
| 28> H  -2.090180000  -1.032320000   0.841890000
| 29> H  -0.839590000  -1.284090000  -0.017130000
| 30> O   1.752130000   0.741530000  -2.896280000
| 31> H   2.036450000   0.920500000  -1.984040000
| 32> H   0.921210000   1.242140000  -2.984230000
| 33> O  -0.923410000   1.794470000  -2.768350000
| 34> H  -1.359750000   2.338250000  -3.430940000
| 35> H  -1.303000000   0.879480000  -2.865760000
| 36> O  -0.741530000   1.752130000   2.896280000
| 37> H  -0.920500000   2.036450000   1.984040000
| 38> H  -1.242140000   0.921210000   2.984230000
| 39> *
| 40>
| 41>                          ****END OF INPUT****

CARTESIAN COORDINATES (ANGSTROEM)
---------------------------------
  O      1.794470    0.923410    2.768350
  H      2.338250    1.359750    3.430940
  H      0.879480    1.303000    2.865760
  O     -1.752130   -0.741530   -2.896280
  H     -2.036450   -0.920500   -1.984040
  H     -0.921210   -1.242140   -2.984230
  O     -0.885520    1.737840    0.052730
  H     -1.032320    2.090180   -0.841890
  H     -1.284090    0.839590    0.017130
  O      0.885520   -1.737840    0.052730
  H      1.284090   -0.839590    0.017130
  H      1.032320   -2.090180   -0.841890
  O     -1.737840   -0.885520   -0.052730
  H     -2.090180   -1.032320    0.841890
  H     -0.839590   -1.284090   -0.017130
  O      1.752130    0.741530   -2.896280
  H      2.036450    0.920500   -1.984040
  H      0.921210    1.242140   -2.984230
  O     -0.923410    1.794470   -2.768350
  H     -1.359750    2.338250   -3.430940
  H     -1.303000    0.879480   -2.865760
  O     -0.741530    1.752130    2.896280
  H     -0.920500    2.036450    1.984040
  H     -1.242140    0.921210    2.984230

 Total Charge           Charge          ....    0
 Multiplicity           Mult            ....    1
 Number of Electrons    NEL             ....   80
 Basis Dimension        Dim             ....  344

ORBITAL ENERGIES
----------------

  NO   OCC          E(Eh)            E(eV)
   0   2.0000     -20.606959      -560.7439
   1   2.0000     -20.602998      -560.6361
   2   2.0000     -20.594890      -560.4155
   3   2.0000     -20.571275      -559.7728
   4   2.0000     -20.565949      -559.6279
   5   2.0000     -20.545293      -559.0658
   6   2.0000     -20.540293      -558.9298
   7   2.0000     -20.511347      -558.1421
   8   2.0000      -1.398994       -38.0686
   9   2.0000      -1.385534       -37.7023
  10   2.0000      -1.378839       -37.5201
  11   2.0000      -1.357267       -36.9331
  12   2.0000      -1.355182       -36.8764
  13   2.0000      -1.327191       -36.1147
  14   2.0000      -1.324456       -36.0403
  15   2.0000      -1.293203       -35.1898
  16   2.0000      -0.760172       -20.6853
  17   2.0000      -0.743982       -20.2448
  18   2.0000      -0.742587       -20.2068
  19   2.0000      -0.738364       -20.0919
  20   2.0000      -0.718617       -19.5546
  21   2.0000      -0.704310       -19.1652
  22   2.0000      -0.695895       -18.9363
  23   2.0000      -0.680810       -18.5258
  24   2.0000      -0.656498       -17.8642
  25   2.0000      -0.626166       -17.0388
  26   2.0000      -0.614865       -16.7313
  27   2.0000      -0.609758       -16.5924
  28   2.0000      -0.594629       -16.1807
  29   2.0000      -0.578996       -15.7553
  30   2.0000      -0.562442       -15.3048
  31   2.0000      -0.545997       -14.8573
  32   2.0000      -0.543164       -14.7802
  33   2.0000      -0.534960       -14.5570
  34   2.0000      -0.532709       -14.4957
  35   2.0000      -0.515444       -14.0260
  36   2.0000      -0.498334       -13.5603
  37   2.0000      -0.492846       -13.4110
  38   2.0000      -0.490404       -13.3446
  39   2.0000      -0.461926       -12.5696
  40   0.0000       0.077530         2.1097
  41   0.0000       0.108472         2.9517
  42   0.0000       0.137712         3.7473
  43   0.0000       0.142551         3.8790
  44   0.0000       0.172542         4.6951

MULLIKEN ATOMIC CHARGES
-----------------------
   0 O :   -0.741060
   1 H :    0.323713
   2 H :    0.371464
   3 O :   -0.695971
   4 H :    0.391447
   5 H :    0.349392
   6 O :   -0.747651
   7 H :    0.373724
   8 H :    0.338088
   9 O :   -0.684586
  10 H :    0.377959
  11 H :    0.352530
  12 O :   -0.737196
  13 H :    0.359723
  14 H :    0.372639
  15 O :   -0.714530
  16 H :    0.331076
  17 H :    0.365703
  18 O :   -0.752685
  19 H :    0.350950
  20 H :    0.385650
  21 O :   -0.691097
  22 H :    0.391809
  23 H :    0.328908
Sum of atomic charges:    0.0000000

LOEWDIN ATOMIC CHARGES
----------------------
   0 O :   -0.377037
   1 H :    0.148105
   2 H :    0.142911
   3 O :   -0.271213
   4 H :    0.159733
   5 H :    0.169911
   6 O :   -0.347445
   7 H :    0.149847
   8 H :    0.134291
   9 O :   -0.281763
  10 H :    0.185923
  11 H :    0.169702
  12 O :   -0.297077
  13 H :    0.171300
  14 H :    0.147110
  15 O :   -0.347918
  16 H :    0.158273
  17 H :    0.148004
  18 O :   -0.313226
  19 H :    0.159644
  20 H :    0.146694
  21 O :   -0.277531
  22 H :    0.159941
  23 H :    0.161819

  Mayer bond orders larger than 0.100000
B(  0-O ,  1-H ) :   0.8612 B(  0-O ,  2-H ) :   0.7758 B(  3-O ,  4-H ) :   0.7986
B(  3-O ,  5-H ) :   0.8383 B(  6-O ,  7-H ) :   0.8078 B(  6-O ,  8-H ) :   0.7943
B(  9-O , 10-H ) :   0.8133 B(  9-O , 11-H ) :   0.8383 B(  9-O , 14-H ) :   0.1065
B( 12-O , 13-H ) :   0.8349 B( 12-O , 14-H ) :   0.7539 B( 15-O , 16-H ) :   0.8544
B( 15-O , 17-H ) :   0.8074 B( 18-O , 19-H ) :   0.8401 B( 18-O , 20-H ) :   0.7428
B( 21-O , 22-H ) :   0.7889 B( 21-O , 23-H ) :   0.8536

MP2 TOTAL ENERGY:     -610.581433551 Eh
FINAL SINGLE POINT ENERGY      -610.581433551150

DIPOLE MOMENT
-------------
                                X             Y             Z
Electronic contribution:     -0.16996      -0.28973      -0.23759
Nuclear contribution   :     -1.09939      -0.53875      -0.08817
                        -----------------------------------------
Total Dipole Moment    :     -1.26935      -0.82847      -0.32576
                        -----------------------------------------
Magnitude (a.u.)       :      1.55040
Magnitude (Debye)      :      3.94080

Rotational constants in cm-1:     0.034381     0.017331     0.016959
Rotational constants in MHz :  1030.719090   519.563625   508.429067

                             ****ORCA TERMINATED NORMALLY****
TOTAL RUN TIME: 0 days 0 hours 3 minutes 4 seconds 398 msec
