                         Program Version 4.2.0 -  RELEASE  -
|  1> # 12mecn.remya.etal.2.mol4,8,9
|  2> ! MP2 def2-TZVP EnGrad TightSCF
|  3>
|  4> %pal
|  5>     nprocs 6
|  6> end
|  7>
|  8> %maxcore 8000
|  9>
| 10> %scf
| 11>     ConvForced true
| 12> end
| 13>
| 14> *xyz 0 1
| 15> C  -1.509690000  -0.693960000  -1.610140000
| 16> H  -1.327010000  -1.692700000  -2.017370000
| 17> H  -0.742170000  -0.000650000  -1.964400000
| 18> H  -2.491920000  -0.334310000  -1.929350000
| 19> C  -1.473570000  -0.748120000  -0.167200000
| 20> N  -1.447490000  -0.793720000   0.998938000
| 21> C   1.912641000  -2.468050000  -1.750510000
| 22> H   2.876947000  -2.793500000  -2.151200000
| 23> H   1.688016000  -1.463720000  -2.122170000
| 24> H   1.123460000  -3.154780000  -2.069590000
| 25> C   1.977850000  -2.444240000  -0.306900000
| 26> N   2.036566000  -2.426130000   0.858249000
| 27> C   0.923766000   4.000693000  -1.575910000
| 28> H   0.011949000   4.478423000  -1.939550000
| 29> H   0.947903000   2.966558000  -1.929960000
| 30> H   1.805950000   4.519548000  -1.956520000
| 31> C   0.942834000   3.994846000  -0.131200000
| 32> N   0.960035000   3.982544000   1.035639000
| 33> *
| 34>
| 35>                          ****END OF INPUT****

CARTESIAN COORDINATES (ANGSTROEM)
---------------------------------
  C     -1.509690   -0.693960   -1.610140
  H     -1.327010   -1.692700   -2.017370
  H     -0.742170   -0.000650   -1.964400
  H     -2.491920   -0.334310   -1.929350
  C     -1.473570   -0.748120   -0.167200
  N     -1.447490   -0.793720    0.998938
  C      1.912641   -2.468050   -1.750510
  H      2.876947   -2.793500   -2.151200
  H      1.688016   -1.463720   -2.122170
  H      1.123460   -3.154780   -2.069590
  C      1.977850   -2.444240   -0.306900
  N      2.036566   -2.426130    0.858249
  C      0.923766    4.000693   -1.575910
  H      0.011949    4.478423   -1.939550
  H      0.947903    2.966558   -1.929960
  H      1.805950    4.519548   -1.956520
  C      0.942834    3.994846   -0.131200
  N      0.960035    3.982544    1.035639

 Total Charge           Charge          ....    0
 Multiplicity           Mult            ....    1
 Number of Electrons    NEL             ....   66
 Basis Dimension        Dim             ....  333

ORBITAL ENERGIES
----------------

  NO   OCC          E(Eh)            E(eV)
   0   2.0000     -15.573954      -423.7888
   1   2.0000     -15.573153      -423.7670
   2   2.0000     -15.573124      -423.7662
   3   2.0000     -11.293985      -307.3250
   4   2.0000     -11.292788      -307.2924
   5   2.0000     -11.289969      -307.2157
   6   2.0000     -11.279589      -306.9332
   7   2.0000     -11.277609      -306.8793
   8   2.0000     -11.277227      -306.8690
   9   2.0000      -1.214298       -33.0427
  10   2.0000      -1.213414       -33.0187
  11   2.0000      -1.212254       -32.9871
  12   2.0000      -1.051796       -28.6208
  13   2.0000      -1.048595       -28.5337
  14   2.0000      -1.048265       -28.5247
  15   2.0000      -0.706330       -19.2202
  16   2.0000      -0.704086       -19.1591
  17   2.0000      -0.703240       -19.1361
  18   2.0000      -0.646625       -17.5955
  19   2.0000      -0.643330       -17.5059
  20   2.0000      -0.638539       -17.3755
  21   2.0000      -0.637321       -17.3424
  22   2.0000      -0.635166       -17.2837
  23   2.0000      -0.632913       -17.2224
  24   2.0000      -0.555138       -15.1061
  25   2.0000      -0.554182       -15.0801
  26   2.0000      -0.552218       -15.0266
  27   2.0000      -0.462791       -12.5932
  28   2.0000      -0.458068       -12.4647
  29   2.0000      -0.457876       -12.4595
  30   2.0000      -0.457026       -12.4363
  31   2.0000      -0.454987       -12.3808
  32   2.0000      -0.449117       -12.2211
  33   0.0000       0.077393         2.1060
  34   0.0000       0.114969         3.1285
  35   0.0000       0.138766         3.7760
  36   0.0000       0.144115         3.9216
  37   0.0000       0.152478         4.1491

MULLIKEN ATOMIC CHARGES
-----------------------
   0 C :   -0.285871
   1 H :    0.165339
   2 H :    0.155733
   3 H :    0.183289
   4 C :   -0.150123
   5 N :   -0.068459
   6 C :   -0.286900
   7 H :    0.183102
   8 H :    0.156800
   9 H :    0.169095
  10 C :   -0.152408
  11 N :   -0.069628
  12 C :   -0.278952
  13 H :    0.173348
  14 H :    0.155513
  15 H :    0.175229
  16 C :   -0.144415
  17 N :   -0.080693
Sum of atomic charges:    0.0000000

LOEWDIN ATOMIC CHARGES
----------------------
   0 C :   -0.289071
   1 H :    0.148713
   2 H :    0.146021
   3 H :    0.153861
   4 C :   -0.225668
   5 N :    0.066078
   6 C :   -0.288820
   7 H :    0.153677
   8 H :    0.146502
   9 H :    0.149919
  10 C :   -0.224940
  11 N :    0.063721
  12 C :   -0.285554
  13 H :    0.151166
  14 H :    0.147798
  15 H :    0.152154
  16 C :   -0.221191
  17 N :    0.055634

  Mayer bond orders larger than 0.100000
B(  0-C ,  1-H ) :   0.9202 B(  0-C ,  2-H ) :   0.9258 B(  0-C ,  3-H ) :   0.9121
B(  0-C ,  4-C ) :   0.8960 B(  4-C ,  5-N ) :   2.8195 B(  6-C ,  7-H ) :   0.9116
B(  6-C ,  8-H ) :   0.9213 B(  6-C ,  9-H ) :   0.9229 B(  6-C , 10-C ) :   0.8967
B( 10-C , 11-N ) :   2.8245 B( 12-C , 13-H ) :   0.9171 B( 12-C , 14-H ) :   0.9211
B( 12-C , 15-H ) :   0.9171 B( 12-C , 16-C ) :   0.9013 B( 16-C , 17-N ) :   2.8273

MP2 TOTAL ENERGY:     -397.444780585 Eh
FINAL SINGLE POINT ENERGY      -397.444780585257

DIPOLE MOMENT
-------------
                                X             Y             Z
Electronic contribution:      0.26353      -0.06901       9.61810
Nuclear contribution   :     -0.38771       0.11023     -13.90551
                        -----------------------------------------
Total Dipole Moment    :     -0.12418       0.04122      -4.28741
                        -----------------------------------------
Magnitude (a.u.)       :      4.28941
Magnitude (Debye)      :     10.90280

Rotational constants in cm-1:     0.040002     0.015631     0.014262
Rotational constants in MHz :  1199.237677   468.612355   427.550417

                             ****ORCA TERMINATED NORMALLY****
TOTAL RUN TIME: 0 days 0 hours 3 minutes 0 seconds 726 msec
