                         Program Version 4.2.0 -  RELEASE  -
|  1> # 12meoh.boyd.etal.mol0,2,10
|  2> ! MP2 def2-TZVP EnGrad TightSCF
|  3>
|  4> %pal
|  5>     nprocs 6
|  6> end
|  7>
|  8> %maxcore 8000
|  9>
| 10> %scf
| 11>     ConvForced true
| 12> end
| 13>
| 14> *xyz 0 1
| 15> O  -1.776108874  -2.741384797  -1.019308298
| 16> H  -2.520094035  -2.452295987  -0.420778302
| 17> C  -2.174025166  -3.952700964  -1.647004581
| 18> H  -1.359803895  -4.272673416  -2.304149236
| 19> H  -3.075973971  -3.808692420  -2.256751112
| 20> H  -2.370225393  -4.752784761  -0.918966137
| 21> O  -3.839777402   2.233595098   0.660436763
| 22> H  -2.958345897   1.907036203   0.973588449
| 23> C  -3.600368059   3.168790682  -0.390480452
| 24> H  -4.551709193   3.344148967  -0.901254863
| 25> H  -2.868237594   2.789240199  -1.113617525
| 26> H  -3.243594915   4.128998607   0.009549480
| 27> O  -5.201143618   0.064582726  -0.172223772
| 28> H  -4.686891530   0.869258890   0.107806143
| 29> C  -6.513192168   0.171391798   0.359883449
| 30> H  -7.049381312  -0.749234190   0.111361174
| 31> H  -7.057741163   1.017801101  -0.081819420
| 32> H  -6.514770575   0.292264928   1.453058834
| 33> *
| 34>
| 35>                          ****END OF INPUT****

CARTESIAN COORDINATES (ANGSTROEM)
---------------------------------
  O     -1.776109   -2.741385   -1.019308
  H     -2.520094   -2.452296   -0.420778
  C     -2.174025   -3.952701   -1.647005
  H     -1.359804   -4.272673   -2.304149
  H     -3.075974   -3.808692   -2.256751
  H     -2.370225   -4.752785   -0.918966
  O     -3.839777    2.233595    0.660437
  H     -2.958346    1.907036    0.973588
  C     -3.600368    3.168791   -0.390480
  H     -4.551709    3.344149   -0.901255
  H     -2.868238    2.789240   -1.113618
  H     -3.243595    4.128999    0.009549
  O     -5.201144    0.064583   -0.172224
  H     -4.686892    0.869259    0.107806
  C     -6.513192    0.171392    0.359883
  H     -7.049381   -0.749234    0.111361
  H     -7.057741    1.017801   -0.081819
  H     -6.514771    0.292265    1.453059

 Total Charge           Charge          ....    0
 Multiplicity           Mult            ....    1
 Number of Electrons    NEL             ....   54
 Basis Dimension        Dim             ....  258

ORBITAL ENERGIES
----------------

  NO   OCC          E(Eh)            E(eV)
   0   2.0000     -20.591521      -560.3238
   1   2.0000     -20.547913      -559.1371
   2   2.0000     -20.519965      -558.3766
   3   2.0000     -11.291340      -307.2530
   4   2.0000     -11.262899      -306.4791
   5   2.0000     -11.252572      -306.1980
   6   2.0000      -1.385202       -37.6933
   7   2.0000      -1.337247       -36.3884
   8   2.0000      -1.317267       -35.8446
   9   2.0000      -0.943256       -25.6673
  10   2.0000      -0.910245       -24.7690
  11   2.0000      -0.899235       -24.4694
  12   2.0000      -0.717043       -19.5117
  13   2.0000      -0.678207       -18.4549
  14   2.0000      -0.671956       -18.2849
  15   2.0000      -0.634982       -17.2787
  16   2.0000      -0.611916       -16.6511
  17   2.0000      -0.608078       -16.5466
  18   2.0000      -0.594566       -16.1790
  19   2.0000      -0.582344       -15.8464
  20   2.0000      -0.567081       -15.4311
  21   2.0000      -0.530962       -14.4482
  22   2.0000      -0.491974       -13.3873
  23   2.0000      -0.491296       -13.3688
  24   2.0000      -0.459240       -12.4966
  25   2.0000      -0.439500       -11.9594
  26   2.0000      -0.421609       -11.4726
  27   0.0000       0.114662         3.1201
  28   0.0000       0.148978         4.0539
  29   0.0000       0.160570         4.3693
  30   0.0000       0.168898         4.5960
  31   0.0000       0.184157         5.0112

MULLIKEN ATOMIC CHARGES
-----------------------
   0 O :   -0.506034
   1 H :    0.329825
   2 C :   -0.170646
   3 H :    0.124189
   4 H :    0.113972
   5 H :    0.106047
   6 O :   -0.512767
   7 H :    0.344382
   8 C :   -0.193254
   9 H :    0.142899
  10 H :    0.136228
  11 H :    0.126228
  12 O :   -0.539439
  13 H :    0.340952
  14 C :   -0.158424
  15 H :    0.118695
  16 H :    0.094911
  17 H :    0.102237
Sum of atomic charges:   -0.0000000

LOEWDIN ATOMIC CHARGES
----------------------
   0 O :   -0.112099
   1 H :    0.195140
   2 C :   -0.384427
   3 H :    0.108457
   4 H :    0.096672
   5 H :    0.094305
   6 O :   -0.075439
   7 H :    0.198442
   8 C :   -0.370371
   9 H :    0.115391
  10 H :    0.104758
  11 H :    0.104376
  12 O :   -0.126700
  13 H :    0.156994
  14 C :   -0.395143
  15 H :    0.104933
  16 H :    0.091401
  17 H :    0.093310

  Mayer bond orders larger than 0.100000
B(  0-O ,  1-H ) :   0.8352 B(  0-O ,  2-C ) :   0.9296 B(  2-C ,  3-H ) :   0.9378
B(  2-C ,  4-H ) :   0.9397 B(  2-C ,  5-H ) :   0.9390 B(  6-O ,  7-H ) :   0.8281
B(  6-O ,  8-C ) :   0.8683 B(  6-O , 13-H ) :   0.1048 B(  8-C ,  9-H ) :   0.9396
B(  8-C , 10-H ) :   0.9408 B(  8-C , 11-H ) :   0.9326 B( 12-O , 13-H ) :   0.7841
B( 12-O , 14-C ) :   0.9385 B( 14-C , 15-H ) :   0.9415 B( 14-C , 16-H ) :   0.9367
B( 14-C , 17-H ) :   0.9410

MP2 TOTAL ENERGY:     -346.532019160 Eh
FINAL SINGLE POINT ENERGY      -346.532019160448

DIPOLE MOMENT
-------------
                                X             Y             Z
Electronic contribution:      2.06151       0.46051       1.29959
Nuclear contribution   :     -2.01218       0.30952      -1.01816
                        -----------------------------------------
Total Dipole Moment    :      0.04933       0.77003       0.28142
                        -----------------------------------------
Magnitude (a.u.)       :      0.82133
Magnitude (Debye)      :      2.08764

Rotational constants in cm-1:     0.084829     0.022337     0.018403
Rotational constants in MHz :  2543.113595   669.657424   551.698362

                             ****ORCA TERMINATED NORMALLY****
TOTAL RUN TIME: 0 days 0 hours 1 minutes 7 seconds 732 msec
