                         Program Version 4.2.0 -  RELEASE  -
|  1> # 12h2o.su.etal.mol0,2,4,6,7,9,11
|  2> ! MP2 def2-TZVP EnGrad TightSCF
|  3>
|  4> %pal
|  5>     nprocs 6
|  6> end
|  7>
|  8> %maxcore 8000
|  9>
| 10> %scf
| 11>     ConvForced true
| 12> end
| 13>
| 14> *xyz 0 1
| 15> O   1.794470000   0.923410000   2.768350000
| 16> H   2.338250000   1.359750000   3.430940000
| 17> H   0.879480000   1.303000000   2.865760000
| 18> O   0.923410000  -1.794470000  -2.768350000
| 19> H   1.359750000  -2.338250000  -3.430940000
| 20> H   1.303000000  -0.879480000  -2.865760000
| 21> O  -0.885520000   1.737840000   0.052730000
| 22> H  -1.032320000   2.090180000  -0.841890000
| 23> H  -1.284090000   0.839590000   0.017130000
| 24> O   1.737840000   0.885520000  -0.052730000
| 25> H   2.090180000   1.032320000   0.841890000
| 26> H   0.839590000   1.284090000  -0.017130000
| 27> O  -1.737840000  -0.885520000  -0.052730000
| 28> H  -2.090180000  -1.032320000   0.841890000
| 29> H  -0.839590000  -1.284090000  -0.017130000
| 30> O   0.741530000  -1.752130000   2.896280000
| 31> H   0.920500000  -2.036450000   1.984040000
| 32> H   1.242140000  -0.921210000   2.984230000
| 33> O  -0.741530000   1.752130000   2.896280000
| 34> H  -0.920500000   2.036450000   1.984040000
| 35> H  -1.242140000   0.921210000   2.984230000
| 36> *
| 37>
| 38>                          ****END OF INPUT****

CARTESIAN COORDINATES (ANGSTROEM)
---------------------------------
  O      1.794470    0.923410    2.768350
  H      2.338250    1.359750    3.430940
  H      0.879480    1.303000    2.865760
  O      0.923410   -1.794470   -2.768350
  H      1.359750   -2.338250   -3.430940
  H      1.303000   -0.879480   -2.865760
  O     -0.885520    1.737840    0.052730
  H     -1.032320    2.090180   -0.841890
  H     -1.284090    0.839590    0.017130
  O      1.737840    0.885520   -0.052730
  H      2.090180    1.032320    0.841890
  H      0.839590    1.284090   -0.017130
  O     -1.737840   -0.885520   -0.052730
  H     -2.090180   -1.032320    0.841890
  H     -0.839590   -1.284090   -0.017130
  O      0.741530   -1.752130    2.896280
  H      0.920500   -2.036450    1.984040
  H      1.242140   -0.921210    2.984230
  O     -0.741530    1.752130    2.896280
  H     -0.920500    2.036450    1.984040
  H     -1.242140    0.921210    2.984230

 Total Charge           Charge          ....    0
 Multiplicity           Mult            ....    1
 Number of Electrons    NEL             ....   70
 Basis Dimension        Dim             ....  301

ORBITAL ENERGIES
----------------

  NO   OCC          E(Eh)            E(eV)
   0   2.0000     -20.602758      -560.6295
   1   2.0000     -20.587947      -560.2265
   2   2.0000     -20.586755      -560.1941
   3   2.0000     -20.561179      -559.4981
   4   2.0000     -20.558759      -559.4323
   5   2.0000     -20.540538      -558.9364
   6   2.0000     -20.509437      -558.0901
   7   2.0000      -1.388750       -37.7898
   8   2.0000      -1.378408       -37.5084
   9   2.0000      -1.368625       -37.2422
  10   2.0000      -1.346768       -36.6474
  11   2.0000      -1.334111       -36.3030
  12   2.0000      -1.321979       -35.9729
  13   2.0000      -1.293680       -35.2028
  14   2.0000      -0.747065       -20.3287
  15   2.0000      -0.739967       -20.1355
  16   2.0000      -0.733169       -19.9505
  17   2.0000      -0.728516       -19.8239
  18   2.0000      -0.702302       -19.1106
  19   2.0000      -0.690904       -18.8004
  20   2.0000      -0.678249       -18.4561
  21   2.0000      -0.644875       -17.5479
  22   2.0000      -0.618760       -16.8373
  23   2.0000      -0.604524       -16.4499
  24   2.0000      -0.591158       -16.0862
  25   2.0000      -0.571453       -15.5500
  26   2.0000      -0.568941       -15.4817
  27   2.0000      -0.551801       -15.0153
  28   2.0000      -0.539361       -14.6767
  29   2.0000      -0.524054       -14.2602
  30   2.0000      -0.517689       -14.0870
  31   2.0000      -0.502739       -13.6802
  32   2.0000      -0.500806       -13.6276
  33   2.0000      -0.487875       -13.2758
  34   2.0000      -0.460292       -12.5252
  35   0.0000       0.086044         2.3414
  36   0.0000       0.128156         3.4873
  37   0.0000       0.141692         3.8556
  38   0.0000       0.145345         3.9550
  39   0.0000       0.157559         4.2874

MULLIKEN ATOMIC CHARGES
-----------------------
   0 O :   -0.749703
   1 H :    0.347310
   2 H :    0.383220
   3 O :   -0.693338
   4 H :    0.338393
   5 H :    0.354849
   6 O :   -0.738583
   7 H :    0.364525
   8 H :    0.367709
   9 O :   -0.739290
  10 H :    0.362001
  11 H :    0.337197
  12 O :   -0.684900
  13 H :    0.352501
  14 H :    0.375874
  15 O :   -0.715673
  16 H :    0.329089
  17 H :    0.366560
  18 O :   -0.696507
  19 H :    0.391491
  20 H :    0.347273
Sum of atomic charges:   -0.0000000

LOEWDIN ATOMIC CHARGES
----------------------
   0 O :   -0.313145
   1 H :    0.157730
   2 H :    0.146399
   3 O :   -0.342976
   4 H :    0.157890
   5 H :    0.184827
   6 O :   -0.299145
   7 H :    0.174543
   8 H :    0.145785
   9 O :   -0.372205
  10 H :    0.143842
  11 H :    0.132035
  12 O :   -0.283134
  13 H :    0.169594
  14 H :    0.184713
  15 O :   -0.348973
  16 H :    0.157345
  17 H :    0.148421
  18 O :   -0.272278
  19 H :    0.159910
  20 H :    0.168821

  Mayer bond orders larger than 0.100000
B(  0-O ,  1-H ) :   0.8418 B(  0-O ,  2-H ) :   0.7441 B(  3-O ,  4-H ) :   0.8532
B(  3-O ,  5-H ) :   0.8358 B(  6-O ,  7-H ) :   0.8325 B(  6-O ,  8-H ) :   0.7611
B(  8-H , 12-O ) :   0.1003 B(  9-O , 10-H ) :   0.8218 B(  9-O , 11-H ) :   0.8136
B( 12-O , 13-H ) :   0.8387 B( 12-O , 14-H ) :   0.8155 B( 15-O , 16-H ) :   0.8554
B( 15-O , 17-H ) :   0.8053 B( 18-O , 19-H ) :   0.7965 B( 18-O , 20-H ) :   0.8398

MP2 TOTAL ENERGY:     -534.250245466 Eh
FINAL SINGLE POINT ENERGY      -534.250245465569

DIPOLE MOMENT
-------------
                                X             Y             Z
Electronic contribution:     -0.45170      -0.00442       0.06562
Nuclear contribution   :     -0.08378       0.53373      -0.59793
                        -----------------------------------------
Total Dipole Moment    :     -0.53548       0.52931      -0.53231
                        -----------------------------------------
Magnitude (a.u.)       :      0.92210
Magnitude (Debye)      :      2.34379

Rotational constants in cm-1:     0.040025     0.022889     0.021291
Rotational constants in MHz :  1199.909373   686.201005   638.293657

                             ****ORCA TERMINATED NORMALLY****
TOTAL RUN TIME: 0 days 0 hours 1 minutes 55 seconds 672 msec
