                         Program Version 4.2.0 -  RELEASE  -
|  1> # 12mecn.remya.etal.2.mol1,4,6
|  2> ! MP2 def2-TZVP EnGrad TightSCF
|  3>
|  4> %pal
|  5>     nprocs 6
|  6> end
|  7>
|  8> %maxcore 8000
|  9>
| 10> %scf
| 11>     ConvForced true
| 12> end
| 13>
| 14> *xyz 0 1
| 15> C  -4.697980000  -0.249690000   1.746215000
| 16> H  -4.927570000   0.755530000   2.111799000
| 17> H  -3.709180000  -0.561560000   2.093253000
| 18> H  -5.432280000  -0.961520000   2.128066000
| 19> C  -4.714100000  -0.247110000   0.301670000
| 20> N  -4.729750000  -0.234960000  -0.865260000
| 21> C  -1.509690000  -0.693960000  -1.610140000
| 22> H  -1.327010000  -1.692700000  -2.017370000
| 23> H  -0.742170000  -0.000650000  -1.964400000
| 24> H  -2.491920000  -0.334310000  -1.929350000
| 25> C  -1.473570000  -0.748120000  -0.167200000
| 26> N  -1.447490000  -0.793720000   0.998938000
| 27> C   5.300864000  -2.920090000   1.401103000
| 28> H   5.986071000  -2.139770000   1.737487000
| 29> H   5.636642000  -3.888750000   1.778233000
| 30> H   4.307359000  -2.697240000   1.799307000
| 31> C   5.234791000  -2.933140000  -0.043290000
| 32> N   5.170868000  -2.941760000  -1.207750000
| 33> *
| 34>
| 35>                          ****END OF INPUT****

CARTESIAN COORDINATES (ANGSTROEM)
---------------------------------
  C     -4.697980   -0.249690    1.746215
  H     -4.927570    0.755530    2.111799
  H     -3.709180   -0.561560    2.093253
  H     -5.432280   -0.961520    2.128066
  C     -4.714100   -0.247110    0.301670
  N     -4.729750   -0.234960   -0.865260
  C     -1.509690   -0.693960   -1.610140
  H     -1.327010   -1.692700   -2.017370
  H     -0.742170   -0.000650   -1.964400
  H     -2.491920   -0.334310   -1.929350
  C     -1.473570   -0.748120   -0.167200
  N     -1.447490   -0.793720    0.998938
  C      5.300864   -2.920090    1.401103
  H      5.986071   -2.139770    1.737487
  H      5.636642   -3.888750    1.778233
  H      4.307359   -2.697240    1.799307
  C      5.234791   -2.933140   -0.043290
  N      5.170868   -2.941760   -1.207750

 Total Charge           Charge          ....    0
 Multiplicity           Mult            ....    1
 Number of Electrons    NEL             ....   66
 Basis Dimension        Dim             ....  333

ORBITAL ENERGIES
----------------

  NO   OCC          E(Eh)            E(eV)
   0   2.0000     -15.572942      -423.7613
   1   2.0000     -15.571857      -423.7318
   2   2.0000     -15.570872      -423.7050
   3   2.0000     -11.283757      -307.0466
   4   2.0000     -11.283658      -307.0439
   5   2.0000     -11.283034      -307.0270
   6   2.0000     -11.280177      -306.9492
   7   2.0000     -11.272690      -306.7455
   8   2.0000     -11.270018      -306.6728
   9   2.0000      -1.218127       -33.1469
  10   2.0000      -1.214719       -33.0542
  11   2.0000      -1.213974       -33.0339
  12   2.0000      -1.043054       -28.3830
  13   2.0000      -1.036961       -28.2171
  14   2.0000      -1.033436       -28.1212
  15   2.0000      -0.700492       -19.0614
  16   2.0000      -0.694914       -18.9096
  17   2.0000      -0.689403       -18.7596
  18   2.0000      -0.631923       -17.1955
  19   2.0000      -0.630128       -17.1466
  20   2.0000      -0.629062       -17.1176
  21   2.0000      -0.625165       -17.0116
  22   2.0000      -0.621686       -16.9169
  23   2.0000      -0.613253       -16.6875
  24   2.0000      -0.559392       -15.2218
  25   2.0000      -0.556153       -15.1337
  26   2.0000      -0.556103       -15.1323
  27   2.0000      -0.460309       -12.5256
  28   2.0000      -0.458584       -12.4787
  29   2.0000      -0.458073       -12.4648
  30   2.0000      -0.457453       -12.4479
  31   2.0000      -0.457014       -12.4360
  32   2.0000      -0.455949       -12.4070
  33   0.0000       0.120002         3.2654
  34   0.0000       0.128627         3.5001
  35   0.0000       0.143572         3.9068
  36   0.0000       0.168868         4.5951
  37   0.0000       0.171802         4.6750

MULLIKEN ATOMIC CHARGES
-----------------------
   0 C :   -0.285153
   1 H :    0.166660
   2 H :    0.204664
   3 H :    0.166815
   4 C :   -0.101772
   5 N :   -0.150943
   6 C :   -0.281518
   7 H :    0.168428
   8 H :    0.167779
   9 H :    0.204568
  10 C :   -0.105223
  11 N :   -0.154301
  12 C :   -0.281305
  13 H :    0.171736
  14 H :    0.171993
  15 H :    0.175862
  16 C :   -0.145402
  17 N :   -0.092889
Sum of atomic charges:    0.0000000

LOEWDIN ATOMIC CHARGES
----------------------
   0 C :   -0.281967
   1 H :    0.152875
   2 H :    0.157041
   3 H :    0.150600
   4 C :   -0.207733
   5 N :    0.030239
   6 C :   -0.281194
   7 H :    0.153815
   8 H :    0.151933
   9 H :    0.157123
  10 C :   -0.208550
  11 N :    0.025822
  12 C :   -0.283495
  13 H :    0.151571
  14 H :    0.151385
  15 H :    0.154214
  16 C :   -0.218467
  17 N :    0.044791

  Mayer bond orders larger than 0.100000
B(  0-C ,  1-H ) :   0.9141 B(  0-C ,  2-H ) :   0.9023 B(  0-C ,  3-H ) :   0.9167
B(  0-C ,  4-C ) :   0.9012 B(  4-C ,  5-N ) :   2.7698 B(  6-C ,  7-H ) :   0.9133
B(  6-C ,  8-H ) :   0.9157 B(  6-C ,  9-H ) :   0.9017 B(  6-C , 10-C ) :   0.9011
B( 10-C , 11-N ) :   2.7766 B( 12-C , 13-H ) :   0.9167 B( 12-C , 14-H ) :   0.9160
B( 12-C , 15-H ) :   0.9158 B( 12-C , 16-C ) :   0.9027 B( 16-C , 17-N ) :   2.8386

MP2 TOTAL ENERGY:     -397.459881352 Eh
FINAL SINGLE POINT ENERGY      -397.459881351747

DIPOLE MOMENT
-------------
                                X             Y             Z
Electronic contribution:     -0.10183      -0.15264      -3.14782
Nuclear contribution   :      0.15096       0.21644       4.66913
                        -----------------------------------------
Total Dipole Moment    :      0.04913       0.06381       1.52131
                        -----------------------------------------
Magnitude (a.u.)       :      1.52344
Magnitude (Debye)      :      3.87227

Rotational constants in cm-1:     0.094038     0.007351     0.006863
Rotational constants in MHz :  2819.181814   220.373231   205.733499

                             ****ORCA TERMINATED NORMALLY****
TOTAL RUN TIME: 0 days 0 hours 2 minutes 34 seconds 403 msec
