                         Program Version 4.2.0 -  RELEASE  -
|  1> # 12h2o.su.etal.mol1,2,3,5,11
|  2> ! MP2 def2-TZVP EnGrad TightSCF
|  3>
|  4> %pal
|  5>     nprocs 6
|  6> end
|  7>
|  8> %maxcore 8000
|  9>
| 10> %scf
| 11>     ConvForced true
| 12> end
| 13>
| 14> *xyz 0 1
| 15> O  -1.794470000  -0.923410000   2.768350000
| 16> H  -2.338250000  -1.359750000   3.430940000
| 17> H  -0.879480000  -1.303000000   2.865760000
| 18> O   0.923410000  -1.794470000  -2.768350000
| 19> H   1.359750000  -2.338250000  -3.430940000
| 20> H   1.303000000  -0.879480000  -2.865760000
| 21> O  -1.752130000  -0.741530000  -2.896280000
| 22> H  -2.036450000  -0.920500000  -1.984040000
| 23> H  -0.921210000  -1.242140000  -2.984230000
| 24> O   0.885520000  -1.737840000   0.052730000
| 25> H   1.284090000  -0.839590000   0.017130000
| 26> H   1.032320000  -2.090180000  -0.841890000
| 27> O  -0.741530000   1.752130000   2.896280000
| 28> H  -0.920500000   2.036450000   1.984040000
| 29> H  -1.242140000   0.921210000   2.984230000
| 30> *
| 31>
| 32>                          ****END OF INPUT****

CARTESIAN COORDINATES (ANGSTROEM)
---------------------------------
  O     -1.794470   -0.923410    2.768350
  H     -2.338250   -1.359750    3.430940
  H     -0.879480   -1.303000    2.865760
  O      0.923410   -1.794470   -2.768350
  H      1.359750   -2.338250   -3.430940
  H      1.303000   -0.879480   -2.865760
  O     -1.752130   -0.741530   -2.896280
  H     -2.036450   -0.920500   -1.984040
  H     -0.921210   -1.242140   -2.984230
  O      0.885520   -1.737840    0.052730
  H      1.284090   -0.839590    0.017130
  H      1.032320   -2.090180   -0.841890
  O     -0.741530    1.752130    2.896280
  H     -0.920500    2.036450    1.984040
  H     -1.242140    0.921210    2.984230

 Total Charge           Charge          ....    0
 Multiplicity           Mult            ....    1
 Number of Electrons    NEL             ....   50
 Basis Dimension        Dim             ....  215

ORBITAL ENERGIES
----------------

  NO   OCC          E(Eh)            E(eV)
   0   2.0000     -20.620258      -561.1058
   1   2.0000     -20.578902      -559.9804
   2   2.0000     -20.550644      -559.2115
   3   2.0000     -20.535477      -558.7987
   4   2.0000     -20.527255      -558.5750
   5   2.0000      -1.400369       -38.1060
   6   2.0000      -1.356631       -36.9158
   7   2.0000      -1.329603       -36.1803
   8   2.0000      -1.318033       -35.8655
   9   2.0000      -1.309559       -35.6349
  10   2.0000      -0.766004       -20.8440
  11   2.0000      -0.723662       -19.6918
  12   2.0000      -0.700676       -19.0664
  13   2.0000      -0.689726       -18.7684
  14   2.0000      -0.678508       -18.4631
  15   2.0000      -0.635513       -17.2932
  16   2.0000      -0.596814       -16.2401
  17   2.0000      -0.587579       -15.9888
  18   2.0000      -0.558159       -15.1883
  19   2.0000      -0.551073       -14.9955
  20   2.0000      -0.541501       -14.7350
  21   2.0000      -0.516419       -14.0525
  22   2.0000      -0.495947       -13.4954
  23   2.0000      -0.483050       -13.1445
  24   2.0000      -0.474983       -12.9249
  25   0.0000       0.086382         2.3506
  26   0.0000       0.117662         3.2018
  27   0.0000       0.147447         4.0122
  28   0.0000       0.168911         4.5963
  29   0.0000       0.178780         4.8649

MULLIKEN ATOMIC CHARGES
-----------------------
   0 O :   -0.696649
   1 H :    0.348929
   2 H :    0.368489
   3 O :   -0.711530
   4 H :    0.365784
   5 H :    0.367184
   6 O :   -0.706391
   7 H :    0.338820
   8 H :    0.352678
   9 O :   -0.694174
  10 H :    0.324461
  11 H :    0.364332
  12 O :   -0.707213
  13 H :    0.327823
  14 H :    0.357456
Sum of atomic charges:    0.0000000

LOEWDIN ATOMIC CHARGES
----------------------
   0 O :   -0.310881
   1 H :    0.162034
   2 H :    0.190811
   3 O :   -0.286322
   4 H :    0.168542
   5 H :    0.190659
   6 O :   -0.347396
   7 H :    0.164198
   8 H :    0.144412
   9 O :   -0.345134
  10 H :    0.164911
  11 H :    0.147685
  12 O :   -0.350202
  13 H :    0.159571
  14 H :    0.147111

  Mayer bond orders larger than 0.100000
B(  0-O ,  1-H ) :   0.8435 B(  0-O ,  2-H ) :   0.8239 B(  3-O ,  4-H ) :   0.8309
B(  3-O ,  5-H ) :   0.8229 B(  6-O ,  7-H ) :   0.8515 B(  6-O ,  8-H ) :   0.8291
B(  9-O , 10-H ) :   0.8570 B(  9-O , 11-H ) :   0.8233 B( 12-O , 13-H ) :   0.8591
B( 12-O , 14-H ) :   0.8166

MP2 TOTAL ENERGY:     -381.586779721 Eh
FINAL SINGLE POINT ENERGY      -381.586779720892

DIPOLE MOMENT
-------------
                                X             Y             Z
Electronic contribution:     -0.11889      -0.16595      -0.04265
Nuclear contribution   :      1.33139      -0.93640      -0.77428
                        -----------------------------------------
Total Dipole Moment    :      1.21250      -1.10235      -0.81693
                        -----------------------------------------
Magnitude (a.u.)       :      1.83104
Magnitude (Debye)      :      4.65412

Rotational constants in cm-1:     0.082235     0.022918     0.021346
Rotational constants in MHz :  2465.328777   687.065430   639.938551

                             ****ORCA TERMINATED NORMALLY****
TOTAL RUN TIME: 0 days 0 hours 0 minutes 25 seconds 633 msec
