                         Program Version 4.2.0 -  RELEASE  -
|  1> # 12mecn.remya.etal.2.mol3,4,10
|  2> ! MP2 def2-TZVP EnGrad TightSCF
|  3>
|  4> %pal
|  5>     nprocs 6
|  6> end
|  7>
|  8> %maxcore 8000
|  9>
| 10> %scf
| 11>     ConvForced true
| 12> end
| 13>
| 14> *xyz 0 1
| 15> C  -5.181310000   2.853865000  -1.626100000
| 16> H  -5.488260000   3.811434000  -2.053310000
| 17> H  -5.857590000   2.068112000  -1.968630000
| 18> H  -4.170750000   2.611402000  -1.966640000
| 19> C  -5.187260000   2.919160000  -0.181450000
| 20> N  -5.181700000   2.970641000   0.983640000
| 21> C  -1.509690000  -0.693960000  -1.610140000
| 22> H  -1.327010000  -1.692700000  -2.017370000
| 23> H  -0.742170000  -0.000650000  -1.964400000
| 24> H  -2.491920000  -0.334310000  -1.929350000
| 25> C  -1.473570000  -0.748120000  -0.167200000
| 26> N  -1.447490000  -0.793720000   0.998938000
| 27> C   4.602033000   0.321019000  -1.784800000
| 28> H   4.827650000  -0.662160000  -2.207910000
| 29> H   5.320558000   1.057980000  -2.148500000
| 30> H   3.601982000   0.643751000  -2.087520000
| 31> C   4.654967000   0.244048000  -0.343060000
| 32> N   4.691648000   0.166590000   0.820757000
| 33> *
| 34>
| 35>                          ****END OF INPUT****

CARTESIAN COORDINATES (ANGSTROEM)
---------------------------------
  C     -5.181310    2.853865   -1.626100
  H     -5.488260    3.811434   -2.053310
  H     -5.857590    2.068112   -1.968630
  H     -4.170750    2.611402   -1.966640
  C     -5.187260    2.919160   -0.181450
  N     -5.181700    2.970641    0.983640
  C     -1.509690   -0.693960   -1.610140
  H     -1.327010   -1.692700   -2.017370
  H     -0.742170   -0.000650   -1.964400
  H     -2.491920   -0.334310   -1.929350
  C     -1.473570   -0.748120   -0.167200
  N     -1.447490   -0.793720    0.998938
  C      4.602033    0.321019   -1.784800
  H      4.827650   -0.662160   -2.207910
  H      5.320558    1.057980   -2.148500
  H      3.601982    0.643751   -2.087520
  C      4.654967    0.244048   -0.343060
  N      4.691648    0.166590    0.820757

 Total Charge           Charge          ....    0
 Multiplicity           Mult            ....    1
 Number of Electrons    NEL             ....   66
 Basis Dimension        Dim             ....  333

ORBITAL ENERGIES
----------------

  NO   OCC          E(Eh)            E(eV)
   0   2.0000     -15.574730      -423.8100
   1   2.0000     -15.574173      -423.7948
   2   2.0000     -15.573909      -423.7876
   3   2.0000     -11.291340      -307.2530
   4   2.0000     -11.289986      -307.2161
   5   2.0000     -11.288145      -307.1660
   6   2.0000     -11.280643      -306.9619
   7   2.0000     -11.280149      -306.9485
   8   2.0000     -11.279623      -306.9342
   9   2.0000      -1.215680       -33.0803
  10   2.0000      -1.214724       -33.0543
  11   2.0000      -1.214300       -33.0428
  12   2.0000      -1.049047       -28.5460
  13   2.0000      -1.047840       -28.5132
  14   2.0000      -1.046736       -28.4831
  15   2.0000      -0.704989       -19.1837
  16   2.0000      -0.703500       -19.1432
  17   2.0000      -0.702361       -19.1122
  18   2.0000      -0.639395       -17.3988
  19   2.0000      -0.637939       -17.3592
  20   2.0000      -0.637275       -17.3411
  21   2.0000      -0.636571       -17.3220
  22   2.0000      -0.634935       -17.2775
  23   2.0000      -0.632995       -17.2247
  24   2.0000      -0.556410       -15.1407
  25   2.0000      -0.555751       -15.1227
  26   2.0000      -0.555084       -15.1046
  27   2.0000      -0.459270       -12.4974
  28   2.0000      -0.458825       -12.4853
  29   2.0000      -0.458183       -12.4678
  30   2.0000      -0.457707       -12.4548
  31   2.0000      -0.457549       -12.4505
  32   2.0000      -0.457188       -12.4407
  33   0.0000       0.086719         2.3597
  34   0.0000       0.108464         2.9514
  35   0.0000       0.133379         3.6294
  36   0.0000       0.155686         4.2364
  37   0.0000       0.164883         4.4867

MULLIKEN ATOMIC CHARGES
-----------------------
   0 C :   -0.286084
   1 H :    0.176213
   2 H :    0.172974
   3 H :    0.162189
   4 C :   -0.143754
   5 N :   -0.081573
   6 C :   -0.281169
   7 H :    0.175258
   8 H :    0.167062
   9 H :    0.162742
  10 C :   -0.143695
  11 N :   -0.080168
  12 C :   -0.278819
  13 H :    0.172542
  14 H :    0.173045
  15 H :    0.164579
  16 C :   -0.145767
  17 N :   -0.085576
Sum of atomic charges:   -0.0000000

LOEWDIN ATOMIC CHARGES
----------------------
   0 C :   -0.286059
   1 H :    0.151928
   2 H :    0.151020
   3 H :    0.149055
   4 C :   -0.220262
   5 N :    0.054289
   6 C :   -0.286290
   7 H :    0.152739
   8 H :    0.150378
   9 H :    0.149182
  10 C :   -0.222263
  11 N :    0.056281
  12 C :   -0.284949
  13 H :    0.152582
  14 H :    0.151539
  15 H :    0.150606
  16 C :   -0.220891
  17 N :    0.051113

  Mayer bond orders larger than 0.100000
B(  0-C ,  1-H ) :   0.9157 B(  0-C ,  2-H ) :   0.9180 B(  0-C ,  3-H ) :   0.9200
B(  0-C ,  4-C ) :   0.9013 B(  4-C ,  5-N ) :   2.8298 B(  6-C ,  7-H ) :   0.9167
B(  6-C ,  8-H ) :   0.9192 B(  6-C ,  9-H ) :   0.9197 B(  6-C , 10-C ) :   0.8995
B( 10-C , 11-N ) :   2.8269 B( 12-C , 13-H ) :   0.9165 B( 12-C , 14-H ) :   0.9171
B( 12-C , 15-H ) :   0.9187 B( 12-C , 16-C ) :   0.9015 B( 16-C , 17-N ) :   2.8324

MP2 TOTAL ENERGY:     -397.446310872 Eh
FINAL SINGLE POINT ENERGY      -397.446310872412

DIPOLE MOMENT
-------------
                                X             Y             Z
Electronic contribution:      0.18084      -0.15807       9.48083
Nuclear contribution   :     -0.26610       0.23799     -13.90788
                        -----------------------------------------
Total Dipole Moment    :     -0.08525       0.07992      -4.42705
                        -----------------------------------------
Magnitude (a.u.)       :      4.42859
Magnitude (Debye)      :     11.25659

Rotational constants in cm-1:     0.049246     0.007329     0.007237
Rotational constants in MHz :  1476.355653   219.708362   216.960275

                             ****ORCA TERMINATED NORMALLY****
TOTAL RUN TIME: 0 days 0 hours 2 minutes 14 seconds 150 msec
