                         Program Version 4.2.0 -  RELEASE  -
|  1> # 12h2o.su.etal.mol4,5
|  2> ! MP2 def2-TZVP EnGrad TightSCF
|  3>
|  4> %pal
|  5>     nprocs 6
|  6> end
|  7>
|  8> %maxcore 8000
|  9>
| 10> %scf
| 11>     ConvForced true
| 12> end
| 13>
| 14> *xyz 0 1
| 15> O  -0.885520000   1.737840000   0.052730000
| 16> H  -1.032320000   2.090180000  -0.841890000
| 17> H  -1.284090000   0.839590000   0.017130000
| 18> O   0.885520000  -1.737840000   0.052730000
| 19> H   1.284090000  -0.839590000   0.017130000
| 20> H   1.032320000  -2.090180000  -0.841890000
| 21> *
| 22>
| 23>                          ****END OF INPUT****

CARTESIAN COORDINATES (ANGSTROEM)
---------------------------------
  O     -0.885520    1.737840    0.052730
  H     -1.032320    2.090180   -0.841890
  H     -1.284090    0.839590    0.017130
  O      0.885520   -1.737840    0.052730
  H      1.284090   -0.839590    0.017130
  H      1.032320   -2.090180   -0.841890

 Total Charge           Charge          ....    0
 Multiplicity           Mult            ....    1
 Number of Electrons    NEL             ....   20
 Basis Dimension        Dim             ....   86

ORBITAL ENERGIES
----------------

  NO   OCC          E(Eh)            E(eV)
   0   2.0000     -20.565931      -559.6274
   1   2.0000     -20.565931      -559.6274
   2   2.0000      -1.342187       -36.5228
   3   2.0000      -1.341562       -36.5058
   4   2.0000      -0.704990       -19.1838
   5   2.0000      -0.702426       -19.1140
   6   2.0000      -0.581208       -15.8155
   7   2.0000      -0.581044       -15.8110
   8   2.0000      -0.511035       -13.9060
   9   2.0000      -0.506553       -13.7840
  10   0.0000       0.110363         3.0031
  11   0.0000       0.146633         3.9901
  12   0.0000       0.203454         5.5363
  13   0.0000       0.205407         5.5894
  14   0.0000       0.507129        13.7997

MULLIKEN ATOMIC CHARGES
-----------------------
   0 O :   -0.679940
   1 H :    0.335081
   2 H :    0.344859
   3 O :   -0.679940
   4 H :    0.344859
   5 H :    0.335081
Sum of atomic charges:   -0.0000000

LOEWDIN ATOMIC CHARGES
----------------------
   0 O :   -0.337554
   1 H :    0.164192
   2 H :    0.173361
   3 O :   -0.337554
   4 H :    0.173361
   5 H :    0.164192

  Mayer bond orders larger than 0.100000
B(  0-O ,  1-H ) :   0.8538 B(  0-O ,  2-H ) :   0.8434 B(  3-O ,  4-H ) :   0.8434
B(  3-O ,  5-H ) :   0.8538

MP2 TOTAL ENERGY:     -152.627879554 Eh
FINAL SINGLE POINT ENERGY      -152.627879553612

DIPOLE MOMENT
-------------
                                X             Y             Z
Electronic contribution:     -0.00000       0.00000       0.26216
Nuclear contribution   :     -0.00000       0.00000      -1.54856
                        -----------------------------------------
Total Dipole Moment    :     -0.00000       0.00000      -1.28639
                        -----------------------------------------
Magnitude (a.u.)       :      1.28639
Magnitude (Debye)      :      3.26975

Rotational constants in cm-1:     6.321745     0.122664     0.122335
Rotational constants in MHz : 189521.149489  3677.382004  3667.500773

                             ****ORCA TERMINATED NORMALLY****
TOTAL RUN TIME: 0 days 0 hours 0 minutes 6 seconds 428 msec
