                         Program Version 4.2.0 -  RELEASE  -
|  1> # 12h2o.su.etal.mol2,3,5,7,8,11
|  2> ! MP2 def2-TZVP EnGrad TightSCF
|  3>
|  4> %pal
|  5>     nprocs 6
|  6> end
|  7>
|  8> %maxcore 8000
|  9>
| 10> %scf
| 11>     ConvForced true
| 12> end
| 13>
| 14> *xyz 0 1
| 15> O   0.923410000  -1.794470000  -2.768350000
| 16> H   1.359750000  -2.338250000  -3.430940000
| 17> H   1.303000000  -0.879480000  -2.865760000
| 18> O  -1.752130000  -0.741530000  -2.896280000
| 19> H  -2.036450000  -0.920500000  -1.984040000
| 20> H  -0.921210000  -1.242140000  -2.984230000
| 21> O   0.885520000  -1.737840000   0.052730000
| 22> H   1.284090000  -0.839590000   0.017130000
| 23> H   1.032320000  -2.090180000  -0.841890000
| 24> O  -1.737840000  -0.885520000  -0.052730000
| 25> H  -2.090180000  -1.032320000   0.841890000
| 26> H  -0.839590000  -1.284090000  -0.017130000
| 27> O   1.752130000   0.741530000  -2.896280000
| 28> H   2.036450000   0.920500000  -1.984040000
| 29> H   0.921210000   1.242140000  -2.984230000
| 30> O  -0.741530000   1.752130000   2.896280000
| 31> H  -0.920500000   2.036450000   1.984040000
| 32> H  -1.242140000   0.921210000   2.984230000
| 33> *
| 34>
| 35>                          ****END OF INPUT****

CARTESIAN COORDINATES (ANGSTROEM)
---------------------------------
  O      0.923410   -1.794470   -2.768350
  H      1.359750   -2.338250   -3.430940
  H      1.303000   -0.879480   -2.865760
  O     -1.752130   -0.741530   -2.896280
  H     -2.036450   -0.920500   -1.984040
  H     -0.921210   -1.242140   -2.984230
  O      0.885520   -1.737840    0.052730
  H      1.284090   -0.839590    0.017130
  H      1.032320   -2.090180   -0.841890
  O     -1.737840   -0.885520   -0.052730
  H     -2.090180   -1.032320    0.841890
  H     -0.839590   -1.284090   -0.017130
  O      1.752130    0.741530   -2.896280
  H      2.036450    0.920500   -1.984040
  H      0.921210    1.242140   -2.984230
  O     -0.741530    1.752130    2.896280
  H     -0.920500    2.036450    1.984040
  H     -1.242140    0.921210    2.984230

 Total Charge           Charge          ....    0
 Multiplicity           Mult            ....    1
 Number of Electrons    NEL             ....   60
 Basis Dimension        Dim             ....  258

ORBITAL ENERGIES
----------------

  NO   OCC          E(Eh)            E(eV)
   0   2.0000     -20.620586      -561.1147
   1   2.0000     -20.582588      -560.0807
   2   2.0000     -20.579520      -559.9972
   3   2.0000     -20.567214      -559.6624
   4   2.0000     -20.553604      -559.2920
   5   2.0000     -20.507701      -558.0429
   6   2.0000      -1.406868       -38.2828
   7   2.0000      -1.371971       -37.3332
   8   2.0000      -1.360451       -37.0198
   9   2.0000      -1.346332       -36.6355
  10   2.0000      -1.335939       -36.3528
  11   2.0000      -1.292659       -35.1750
  12   2.0000      -0.762650       -20.7528
  13   2.0000      -0.747919       -20.3519
  14   2.0000      -0.728809       -19.8319
  15   2.0000      -0.709866       -19.3164
  16   2.0000      -0.708878       -19.2895
  17   2.0000      -0.672040       -18.2871
  18   2.0000      -0.649772       -17.6812
  19   2.0000      -0.620389       -16.8817
  20   2.0000      -0.596752       -16.2384
  21   2.0000      -0.587893       -15.9974
  22   2.0000      -0.583740       -15.8844
  23   2.0000      -0.555374       -15.1125
  24   2.0000      -0.537507       -14.6263
  25   2.0000      -0.520799       -14.1717
  26   2.0000      -0.516280       -14.0487
  27   2.0000      -0.511368       -13.9150
  28   2.0000      -0.500271       -13.6131
  29   2.0000      -0.457674       -12.4539
  30   0.0000       0.072595         1.9754
  31   0.0000       0.108527         2.9532
  32   0.0000       0.138198         3.7606
  33   0.0000       0.156143         4.2489
  34   0.0000       0.170325         4.6348

MULLIKEN ATOMIC CHARGES
-----------------------
   0 O :   -0.751074
   1 H :    0.354930
   2 H :    0.380458
   3 O :   -0.733361
   4 H :    0.369994
   5 H :    0.343775
   6 O :   -0.687773
   7 H :    0.328444
   8 H :    0.384145
   9 O :   -0.726108
  10 H :    0.328534
  11 H :    0.359729
  12 O :   -0.681452
  13 H :    0.351549
  14 H :    0.379925
  15 O :   -0.673947
  16 H :    0.338642
  17 H :    0.333591
Sum of atomic charges:    0.0000000

LOEWDIN ATOMIC CHARGES
----------------------
   0 O :   -0.312431
   1 H :    0.161391
   2 H :    0.145569
   3 O :   -0.357777
   4 H :    0.151137
   5 H :    0.138575
   6 O :   -0.294320
   7 H :    0.165260
   8 H :    0.154185
   9 O :   -0.341764
  10 H :    0.157551
  11 H :    0.144203
  12 O :   -0.265150
  13 H :    0.170507
  14 H :    0.184808
  15 O :   -0.330971
  16 H :    0.165121
  17 H :    0.164105

  Mayer bond orders larger than 0.100000
B(  0-O ,  1-H ) :   0.8380 B(  0-O ,  2-H ) :   0.7512 B(  3-O ,  4-H ) :   0.8203
B(  3-O ,  5-H ) :   0.8302 B(  6-O ,  7-H ) :   0.8509 B(  6-O ,  8-H ) :   0.7938
B(  9-O , 10-H ) :   0.8536 B(  9-O , 11-H ) :   0.7740 B( 12-O , 13-H ) :   0.8406
B( 12-O , 14-H ) :   0.8182 B( 15-O , 16-H ) :   0.8514 B( 15-O , 17-H ) :   0.8544

MP2 TOTAL ENERGY:     -457.921444795 Eh
FINAL SINGLE POINT ENERGY      -457.921444795157

DIPOLE MOMENT
-------------
                                X             Y             Z
Electronic contribution:      0.30405       0.16055      -0.13650
Nuclear contribution   :      1.02183      -0.14554       0.05351
                        -----------------------------------------
Total Dipole Moment    :      1.32588       0.01501      -0.08299
                        -----------------------------------------
Magnitude (a.u.)       :      1.32856
Magnitude (Debye)      :      3.37692

Rotational constants in cm-1:     0.054384     0.024498     0.022393
Rotational constants in MHz :  1630.395390   734.426676   671.317877

                             ****ORCA TERMINATED NORMALLY****
TOTAL RUN TIME: 0 days 0 hours 1 minutes 3 seconds 105 msec
