                         Program Version 4.2.0 -  RELEASE  -
|  1> # 12h2o.su.etal.mol2,3,5,10,11
|  2> ! MP2 def2-TZVP EnGrad TightSCF
|  3>
|  4> %pal
|  5>     nprocs 6
|  6> end
|  7>
|  8> %maxcore 8000
|  9>
| 10> %scf
| 11>     ConvForced true
| 12> end
| 13>
| 14> *xyz 0 1
| 15> O   0.923410000  -1.794470000  -2.768350000
| 16> H   1.359750000  -2.338250000  -3.430940000
| 17> H   1.303000000  -0.879480000  -2.865760000
| 18> O  -1.752130000  -0.741530000  -2.896280000
| 19> H  -2.036450000  -0.920500000  -1.984040000
| 20> H  -0.921210000  -1.242140000  -2.984230000
| 21> O   0.885520000  -1.737840000   0.052730000
| 22> H   1.284090000  -0.839590000   0.017130000
| 23> H   1.032320000  -2.090180000  -0.841890000
| 24> O  -0.923410000   1.794470000  -2.768350000
| 25> H  -1.359750000   2.338250000  -3.430940000
| 26> H  -1.303000000   0.879480000  -2.865760000
| 27> O  -0.741530000   1.752130000   2.896280000
| 28> H  -0.920500000   2.036450000   1.984040000
| 29> H  -1.242140000   0.921210000   2.984230000
| 30> *
| 31>
| 32>                          ****END OF INPUT****

CARTESIAN COORDINATES (ANGSTROEM)
---------------------------------
  O      0.923410   -1.794470   -2.768350
  H      1.359750   -2.338250   -3.430940
  H      1.303000   -0.879480   -2.865760
  O     -1.752130   -0.741530   -2.896280
  H     -2.036450   -0.920500   -1.984040
  H     -0.921210   -1.242140   -2.984230
  O      0.885520   -1.737840    0.052730
  H      1.284090   -0.839590    0.017130
  H      1.032320   -2.090180   -0.841890
  O     -0.923410    1.794470   -2.768350
  H     -1.359750    2.338250   -3.430940
  H     -1.303000    0.879480   -2.865760
  O     -0.741530    1.752130    2.896280
  H     -0.920500    2.036450    1.984040
  H     -1.242140    0.921210    2.984230

 Total Charge           Charge          ....    0
 Multiplicity           Mult            ....    1
 Number of Electrons    NEL             ....   50
 Basis Dimension        Dim             ....  215

ORBITAL ENERGIES
----------------

  NO   OCC          E(Eh)            E(eV)
   0   2.0000     -20.625318      -561.2434
   1   2.0000     -20.577425      -559.9402
   2   2.0000     -20.553650      -559.2933
   3   2.0000     -20.548255      -559.1464
   4   2.0000     -20.525024      -558.5143
   5   2.0000      -1.405754       -38.2525
   6   2.0000      -1.366033       -37.1717
   7   2.0000      -1.332910       -36.2703
   8   2.0000      -1.327328       -36.1184
   9   2.0000      -1.306955       -35.5641
  10   2.0000      -0.771336       -20.9891
  11   2.0000      -0.728890       -19.8341
  12   2.0000      -0.699395       -19.0315
  13   2.0000      -0.695685       -18.9306
  14   2.0000      -0.694520       -18.8988
  15   2.0000      -0.643368       -17.5069
  16   2.0000      -0.608522       -16.5587
  17   2.0000      -0.580820       -15.8049
  18   2.0000      -0.570617       -15.5273
  19   2.0000      -0.555697       -15.1213
  20   2.0000      -0.548100       -14.9146
  21   2.0000      -0.509022       -13.8512
  22   2.0000      -0.497856       -13.5474
  23   2.0000      -0.493658       -13.4331
  24   2.0000      -0.475849       -12.9485
  25   0.0000       0.084770         2.3067
  26   0.0000       0.123606         3.3635
  27   0.0000       0.149766         4.0753
  28   0.0000       0.159188         4.3317
  29   0.0000       0.172394         4.6911

MULLIKEN ATOMIC CHARGES
-----------------------
   0 O :   -0.721573
   1 H :    0.368138
   2 H :    0.376310
   3 O :   -0.699344
   4 H :    0.357766
   5 H :    0.372362
   6 O :   -0.694006
   7 H :    0.328280
   8 H :    0.361247
   9 O :   -0.741577
  10 H :    0.328037
  11 H :    0.364179
  12 O :   -0.678345
  13 H :    0.340005
  14 H :    0.338522
Sum of atomic charges:    0.0000000

LOEWDIN ATOMIC CHARGES
----------------------
   0 O :   -0.287745
   1 H :    0.169845
   2 H :    0.194089
   3 O :   -0.281319
   4 H :    0.173039
   5 H :    0.152174
   6 O :   -0.345329
   7 H :    0.166701
   8 H :    0.146110
   9 O :   -0.377697
  10 H :    0.149599
  11 H :    0.140395
  12 O :   -0.333521
  13 H :    0.166433
  14 H :    0.167226

  Mayer bond orders larger than 0.100000
B(  0-O ,  1-H ) :   0.8295 B(  0-O ,  2-H ) :   0.8147 B(  3-O ,  4-H ) :   0.8366
B(  3-O ,  5-H ) :   0.8063 B(  6-O ,  7-H ) :   0.8552 B(  6-O ,  8-H ) :   0.8268
B(  9-O , 10-H ) :   0.8591 B(  9-O , 11-H ) :   0.7772 B( 12-O , 13-H ) :   0.8515
B( 12-O , 14-H ) :   0.8522

MP2 TOTAL ENERGY:     -381.589892474 Eh
FINAL SINGLE POINT ENERGY      -381.589892473671

DIPOLE MOMENT
-------------
                                X             Y             Z
Electronic contribution:      0.03292      -0.32689       0.16905
Nuclear contribution   :      0.34326      -0.56623      -2.03947
                        -----------------------------------------
Total Dipole Moment    :      0.37618      -0.89312      -1.87042
                        -----------------------------------------
Magnitude (a.u.)       :      2.10657
Magnitude (Debye)      :      5.35448

Rotational constants in cm-1:     0.057772     0.030234     0.022159
Rotational constants in MHz :  1731.968117   906.401495   664.317608

                             ****ORCA TERMINATED NORMALLY****
TOTAL RUN TIME: 0 days 0 hours 0 minutes 27 seconds 600 msec
