                         Program Version 4.2.0 -  RELEASE  -
|  1> # 12h2o.su.etal.mol1,2,4,5,6,8,11
|  2> ! MP2 def2-TZVP EnGrad TightSCF
|  3>
|  4> %pal
|  5>     nprocs 6
|  6> end
|  7>
|  8> %maxcore 8000
|  9>
| 10> %scf
| 11>     ConvForced true
| 12> end
| 13>
| 14> *xyz 0 1
| 15> O  -1.794470000  -0.923410000   2.768350000
| 16> H  -2.338250000  -1.359750000   3.430940000
| 17> H  -0.879480000  -1.303000000   2.865760000
| 18> O   0.923410000  -1.794470000  -2.768350000
| 19> H   1.359750000  -2.338250000  -3.430940000
| 20> H   1.303000000  -0.879480000  -2.865760000
| 21> O  -0.885520000   1.737840000   0.052730000
| 22> H  -1.032320000   2.090180000  -0.841890000
| 23> H  -1.284090000   0.839590000   0.017130000
| 24> O   0.885520000  -1.737840000   0.052730000
| 25> H   1.284090000  -0.839590000   0.017130000
| 26> H   1.032320000  -2.090180000  -0.841890000
| 27> O   1.737840000   0.885520000  -0.052730000
| 28> H   2.090180000   1.032320000   0.841890000
| 29> H   0.839590000   1.284090000  -0.017130000
| 30> O   1.752130000   0.741530000  -2.896280000
| 31> H   2.036450000   0.920500000  -1.984040000
| 32> H   0.921210000   1.242140000  -2.984230000
| 33> O  -0.741530000   1.752130000   2.896280000
| 34> H  -0.920500000   2.036450000   1.984040000
| 35> H  -1.242140000   0.921210000   2.984230000
| 36> *
| 37>
| 38>                          ****END OF INPUT****

CARTESIAN COORDINATES (ANGSTROEM)
---------------------------------
  O     -1.794470   -0.923410    2.768350
  H     -2.338250   -1.359750    3.430940
  H     -0.879480   -1.303000    2.865760
  O      0.923410   -1.794470   -2.768350
  H      1.359750   -2.338250   -3.430940
  H      1.303000   -0.879480   -2.865760
  O     -0.885520    1.737840    0.052730
  H     -1.032320    2.090180   -0.841890
  H     -1.284090    0.839590    0.017130
  O      0.885520   -1.737840    0.052730
  H      1.284090   -0.839590    0.017130
  H      1.032320   -2.090180   -0.841890
  O      1.737840    0.885520   -0.052730
  H      2.090180    1.032320    0.841890
  H      0.839590    1.284090   -0.017130
  O      1.752130    0.741530   -2.896280
  H      2.036450    0.920500   -1.984040
  H      0.921210    1.242140   -2.984230
  O     -0.741530    1.752130    2.896280
  H     -0.920500    2.036450    1.984040
  H     -1.242140    0.921210    2.984230

 Total Charge           Charge          ....    0
 Multiplicity           Mult            ....    1
 Number of Electrons    NEL             ....   70
 Basis Dimension        Dim             ....  301

ORBITAL ENERGIES
----------------

  NO   OCC          E(Eh)            E(eV)
   0   2.0000     -20.625204      -561.2403
   1   2.0000     -20.586748      -560.1939
   2   2.0000     -20.585680      -560.1648
   3   2.0000     -20.581078      -560.0396
   4   2.0000     -20.536307      -558.8213
   5   2.0000     -20.520290      -558.3855
   6   2.0000     -20.500632      -557.8505
   7   2.0000      -1.408944       -38.3393
   8   2.0000      -1.379483       -37.5376
   9   2.0000      -1.368432       -37.2369
  10   2.0000      -1.358827       -36.9756
  11   2.0000      -1.321040       -35.9473
  12   2.0000      -1.305409       -35.5220
  13   2.0000      -1.284601       -34.9558
  14   2.0000      -0.765266       -20.8240
  15   2.0000      -0.746371       -20.3098
  16   2.0000      -0.733589       -19.9620
  17   2.0000      -0.725937       -19.7538
  18   2.0000      -0.705958       -19.2101
  19   2.0000      -0.688203       -18.7270
  20   2.0000      -0.669579       -18.2202
  21   2.0000      -0.647408       -17.6169
  22   2.0000      -0.629758       -17.1366
  23   2.0000      -0.602800       -16.4030
  24   2.0000      -0.596541       -16.2327
  25   2.0000      -0.576204       -15.6793
  26   2.0000      -0.563833       -15.3427
  27   2.0000      -0.547169       -14.8892
  28   2.0000      -0.543261       -14.7829
  29   2.0000      -0.517350       -14.0778
  30   2.0000      -0.516858       -14.0644
  31   2.0000      -0.509981       -13.8773
  32   2.0000      -0.481782       -13.1100
  33   2.0000      -0.469936       -12.7876
  34   2.0000      -0.451620       -12.2892
  35   0.0000       0.075551         2.0558
  36   0.0000       0.120331         3.2744
  37   0.0000       0.146989         3.9998
  38   0.0000       0.154483         4.2037
  39   0.0000       0.167922         4.5694

MULLIKEN ATOMIC CHARGES
-----------------------
   0 O :   -0.703835
   1 H :    0.351612
   2 H :    0.373179
   3 O :   -0.736885
   4 H :    0.333553
   5 H :    0.367969
   6 O :   -0.714545
   7 H :    0.358361
   8 H :    0.390007
   9 O :   -0.743788
  10 H :    0.336388
  11 H :    0.365746
  12 O :   -0.738361
  13 H :    0.371743
  14 H :    0.364675
  15 O :   -0.686390
  16 H :    0.391560
  17 H :    0.334732
  18 O :   -0.723513
  19 H :    0.358700
  20 H :    0.349094
Sum of atomic charges:   -0.0000000

LOEWDIN ATOMIC CHARGES
----------------------
   0 O :   -0.313702
   1 H :    0.163251
   2 H :    0.192723
   3 O :   -0.342315
   4 H :    0.151870
   5 H :    0.143061
   6 O :   -0.273396
   7 H :    0.171872
   8 H :    0.191672
   9 O :   -0.375587
  10 H :    0.131265
  11 H :    0.146169
  12 O :   -0.297026
  13 H :    0.177290
  14 H :    0.144293
  15 O :   -0.272345
  16 H :    0.159866
  17 H :    0.164787
  18 O :   -0.352669
  19 H :    0.145256
  20 H :    0.143663

  Mayer bond orders larger than 0.100000
B(  0-O ,  1-H ) :   0.8422 B(  0-O ,  2-H ) :   0.8198 B(  3-O ,  4-H ) :   0.8523
B(  3-O ,  5-H ) :   0.7671 B(  6-O ,  7-H ) :   0.8337 B(  6-O ,  8-H ) :   0.8051
B(  9-O , 10-H ) :   0.8163 B(  9-O , 11-H ) :   0.8158 B( 12-O , 13-H ) :   0.8267
B( 12-O , 14-H ) :   0.7738 B( 15-O , 16-H ) :   0.7961 B( 15-O , 17-H ) :   0.8502
B( 18-O , 19-H ) :   0.8371 B( 18-O , 20-H ) :   0.8210

MP2 TOTAL ENERGY:     -534.247533603 Eh
FINAL SINGLE POINT ENERGY      -534.247533602815

DIPOLE MOMENT
-------------
                                X             Y             Z
Electronic contribution:     -0.07175       0.30236       0.06974
Nuclear contribution   :     -0.48689       0.19446      -0.77428
                        -----------------------------------------
Total Dipole Moment    :     -0.55864       0.49683      -0.70454
                        -----------------------------------------
Magnitude (a.u.)       :      1.02727
Magnitude (Debye)      :      2.61112

Rotational constants in cm-1:     0.052986     0.020691     0.017109
Rotational constants in MHz :  1588.476728   620.313308   512.924391

                             ****ORCA TERMINATED NORMALLY****
TOTAL RUN TIME: 0 days 0 hours 2 minutes 16 seconds 45 msec
