                         Program Version 3.0.3 - RELEASE   -
|  1> ! wB97X-D3 MA-Def2-TZVP def2-TZVP/J RIJCOSX TightSCF Grid4
|  2>
|  3> %pal nprocs 1 end
|  4>
|  5> %scf
|  6>         maxiter 400
|  7> end
|  8>
|  9> * xyz  0  1
| 10> O  2.137170	-2.433554	2.057866
| 11> H  1.563513	-2.712280	1.289961
| 12> H  1.536342	-1.918500	2.666331
| 13> O  2.262862	0.734096	-0.243619
| 14> H  1.913080	1.520962	0.277678
| 15> H  2.899854	0.261645	0.385198
| 16> O  1.132728	-2.430176	-2.616296
| 17> H  1.522998	-1.427582	-2.705376
| 18> H  1.732204	-2.979117	-3.154542
| 19> O  1.261427	2.696421	1.285550
| 20> H  1.844952	2.306030	2.037737
| 21> H  0.330016	2.606573	1.646664
| 22> O  2.524865	1.368868	3.131902
| 23> H  3.168546	0.765751	2.672171
| 24> H  1.829776	0.714642	3.418520
| 25> O  -3.487869	0.867408	-0.898130
| 26> H  -4.273352	1.010339	-1.458823
| 27> H  -2.731768	0.526211	-1.543991
| 28> O  2.094211	-0.124360	-2.820005
| 29> H  2.307449	0.222101	-1.913371
| 30> H  1.436751	0.586493	-3.154441
| 31> O  -1.312494	-0.085890	2.148790
| 32> H  -1.442751	0.910059	2.252050
| 33> H  -0.801799	-0.153323	1.263290
| 34> O  -3.295244	-1.305487	0.745744
| 35> H  -2.667992	-0.906988	1.415304
| 36> H  -3.500332	-0.527338	0.152269
| 37> O  -1.314525	2.539602	2.119587
| 38> H  -1.589497	3.176176	2.804301
| 39> H  -1.795657	2.831661	1.216112
| 40> O  0.304069	3.407770	-1.077034
| 41> H  0.826923	3.207020	-0.238841
| 42> H  0.493680	4.345221	-1.268777
| 43> O  -0.055542	-0.406233	-0.097922
| 44> H  0.164139	-1.402236	-0.069912
| 45> H  0.871851	0.024233	-0.165199
| 46> O  0.537180	-2.951192	-0.100578
| 47> H  -0.430111	-3.219861	-0.168710
| 48> H  0.857976	-2.885835	-1.060228
| 49> O  -1.545717	-2.345062	-3.066318
| 50> H  -1.823017	-2.744008	-2.195332
| 51> H  -0.552359	-2.463014	-3.055806
| 52> O  -1.510922	0.083383	-2.246059
| 53> H  -1.589082	-0.861528	-2.677499
| 54> H  -0.910035	-0.093922	-1.447975
| 55> O  3.711594	-0.521629	1.551448
| 56> H  4.617624	-0.839314	1.387274
| 57> H  3.115428	-1.372556	1.728096
| 58> O  0.318885	1.724085	-3.367773
| 59> H  -0.467821	1.172028	-3.091930
| 60> H  0.414955	2.347731	-2.605757
| 61> O  0.726720	-0.679711	3.591098
| 62> H  0.456460	-0.945318	4.489185
| 63> H  -0.149905	-0.470019	3.083915
| 64> O  -2.274923	3.153817	-0.111406
| 65> H  -1.417372	3.217204	-0.615421
| 66> H  -2.751574	2.335700	-0.447494
| 67> O  -2.082217	-3.170472	-0.499925
| 68> H  -2.579527	-2.391222	0.002900
| 69> H  -2.636952	-3.958940	-0.354985
| 70> **                         ****END OF INPUT****

CARTESIAN COORDINATES (ANGSTROEM)
---------------------------------
  O      2.137170   -2.433554    2.057866
  H      1.563513   -2.712280    1.289961
  H      1.536342   -1.918500    2.666331
  O      2.262862    0.734096   -0.243619
  H      1.913080    1.520962    0.277678
  H      2.899854    0.261645    0.385198
  O      1.132728   -2.430176   -2.616296
  H      1.522998   -1.427582   -2.705376
  H      1.732204   -2.979117   -3.154542
  O      1.261427    2.696421    1.285550
  H      1.844952    2.306030    2.037737
  H      0.330016    2.606573    1.646664
  O      2.524865    1.368868    3.131902
  H      3.168546    0.765751    2.672171
  H      1.829776    0.714642    3.418520
  O     -3.487869    0.867408   -0.898130
  H     -4.273352    1.010339   -1.458823
  H     -2.731768    0.526211   -1.543991
  O      2.094211   -0.124360   -2.820005
  H      2.307449    0.222101   -1.913371
  H      1.436751    0.586493   -3.154441
  O     -1.312494   -0.085890    2.148790
  H     -1.442751    0.910059    2.252050
  H     -0.801799   -0.153323    1.263290
  O     -3.295244   -1.305487    0.745744
  H     -2.667992   -0.906988    1.415304
  H     -3.500332   -0.527338    0.152269
  O     -1.314525    2.539602    2.119587
  H     -1.589497    3.176176    2.804301
  H     -1.795657    2.831661    1.216112
  O      0.304069    3.407770   -1.077034
  H      0.826923    3.207020   -0.238841
  H      0.493680    4.345221   -1.268777
  O     -0.055542   -0.406233   -0.097922
  H      0.164139   -1.402236   -0.069912
  H      0.871851    0.024233   -0.165199
  O      0.537180   -2.951192   -0.100578
  H     -0.430111   -3.219861   -0.168710
  H      0.857976   -2.885835   -1.060228
  O     -1.545717   -2.345062   -3.066318
  H     -1.823017   -2.744008   -2.195332
  H     -0.552359   -2.463014   -3.055806
  O     -1.510922    0.083383   -2.246059
  H     -1.589082   -0.861528   -2.677499
  H     -0.910035   -0.093922   -1.447975
  O      3.711594   -0.521629    1.551448
  H      4.617624   -0.839314    1.387274
  H      3.115428   -1.372556    1.728096
  O      0.318885    1.724085   -3.367773
  H     -0.467821    1.172028   -3.091930
  H      0.414955    2.347731   -2.605757
  O      0.726720   -0.679711    3.591098
  H      0.456460   -0.945318    4.489185
  H     -0.149905   -0.470019    3.083915
  O     -2.274923    3.153817   -0.111406
  H     -1.417372    3.217204   -0.615421
  H     -2.751574    2.335700   -0.447494
  O     -2.082217   -3.170472   -0.499925
  H     -2.579527   -2.391222    0.002900
  H     -2.636952   -3.958940   -0.354985

 Total Charge           Charge          ....    0
 Multiplicity           Mult            ....    1
 Number of Electrons    NEL             ....  200
 Basis Dimension        Dim             ....  940

ORBITAL ENERGIES
----------------

  NO   OCC          E(Eh)            E(eV)
   0   2.0000     -19.266115      -524.2576
   1   2.0000     -19.256451      -523.9947
   2   2.0000     -19.253965      -523.9270
   3   2.0000     -19.250734      -523.8391
   4   2.0000     -19.250177      -523.8239
   5   2.0000     -19.249510      -523.8058
   6   2.0000     -19.242327      -523.6103
   7   2.0000     -19.241769      -523.5952
   8   2.0000     -19.241359      -523.5840
   9   2.0000     -19.240659      -523.5650
  10   2.0000     -19.240647      -523.5646
  11   2.0000     -19.240263      -523.5542
  12   2.0000     -19.235462      -523.4235
  13   2.0000     -19.235084      -523.4133
  14   2.0000     -19.232998      -523.3565
  15   2.0000     -19.231123      -523.3055
  16   2.0000     -19.229128      -523.2512
  17   2.0000     -19.223885      -523.1085
  18   2.0000     -19.219941      -523.0012
  19   2.0000     -19.215397      -522.8775
  20   2.0000      -1.161960       -31.6185
  21   2.0000      -1.154996       -31.4291
  22   2.0000      -1.149179       -31.2707
  23   2.0000      -1.148786       -31.2600
  24   2.0000      -1.142614       -31.0921
  25   2.0000      -1.140350       -31.0305
  26   2.0000      -1.138141       -30.9704
  27   2.0000      -1.134080       -30.8599
  28   2.0000      -1.130026       -30.7496
  29   2.0000      -1.124761       -30.6063
  30   2.0000      -1.122956       -30.5572
  31   2.0000      -1.120571       -30.4923
  32   2.0000      -1.114631       -30.3306
  33   2.0000      -1.111070       -30.2338
  34   2.0000      -1.108714       -30.1696
  35   2.0000      -1.103556       -30.0293
  36   2.0000      -1.101646       -29.9773
  37   2.0000      -1.098175       -29.8829
  38   2.0000      -1.091068       -29.6895
  39   2.0000      -1.086963       -29.5778
  40   2.0000      -0.671298       -18.2670
  41   2.0000      -0.660355       -17.9692
  42   2.0000      -0.659386       -17.9428
  43   2.0000      -0.655258       -17.8305
  44   2.0000      -0.653591       -17.7851
  45   2.0000      -0.652481       -17.7549
  46   2.0000      -0.649957       -17.6862
  47   2.0000      -0.645744       -17.5716
  48   2.0000      -0.643563       -17.5123
  49   2.0000      -0.642407       -17.4808
  50   2.0000      -0.637613       -17.3503
  51   2.0000      -0.635942       -17.3049
  52   2.0000      -0.631745       -17.1907
  53   2.0000      -0.627525       -17.0758
  54   2.0000      -0.623704       -16.9718
  55   2.0000      -0.621907       -16.9230
  56   2.0000      -0.621442       -16.9103
  57   2.0000      -0.618500       -16.8302
  58   2.0000      -0.614378       -16.7181
  59   2.0000      -0.607768       -16.5382
  60   2.0000      -0.582345       -15.8464
  61   2.0000      -0.573424       -15.6037
  62   2.0000      -0.566657       -15.4195
  63   2.0000      -0.556932       -15.1549
  64   2.0000      -0.554052       -15.0765
  65   2.0000      -0.546389       -14.8680
  66   2.0000      -0.531486       -14.4625
  67   2.0000      -0.528799       -14.3893
  68   2.0000      -0.523904       -14.2561
  69   2.0000      -0.512092       -13.9347
  70   2.0000      -0.505695       -13.7607
  71   2.0000      -0.503082       -13.6896
  72   2.0000      -0.497838       -13.5469
  73   2.0000      -0.495430       -13.4813
  74   2.0000      -0.491844       -13.3838
  75   2.0000      -0.485189       -13.2027
  76   2.0000      -0.475411       -12.9366
  77   2.0000      -0.472581       -12.8596
  78   2.0000      -0.468525       -12.7492
  79   2.0000      -0.452660       -12.3175
  80   2.0000      -0.443927       -12.0799
  81   2.0000      -0.440220       -11.9790
  82   2.0000      -0.435932       -11.8623
  83   2.0000      -0.434563       -11.8251
  84   2.0000      -0.431460       -11.7406
  85   2.0000      -0.430903       -11.7255
  86   2.0000      -0.428219       -11.6524
  87   2.0000      -0.426718       -11.6116
  88   2.0000      -0.424901       -11.5621
  89   2.0000      -0.424742       -11.5578
  90   2.0000      -0.424045       -11.5389
  91   2.0000      -0.422061       -11.4849
  92   2.0000      -0.418896       -11.3987
  93   2.0000      -0.417249       -11.3539
  94   2.0000      -0.416146       -11.3239
  95   2.0000      -0.413836       -11.2610
  96   2.0000      -0.407106       -11.0779
  97   2.0000      -0.404927       -11.0186
  98   2.0000      -0.401511       -10.9257
  99   2.0000      -0.393528       -10.7084
 100   0.0000       0.044997         1.2244
 101   0.0000       0.061971         1.6863
 102   0.0000       0.065847         1.7918
 103   0.0000       0.068852         1.8736
 104   0.0000       0.082150         2.2354

MULLIKEN ATOMIC CHARGES
-----------------------
   0 O :   -0.750547
   1 H :    0.436750
   2 H :    0.387713
   3 O :   -0.816096
   4 H :    0.371400
   5 H :    0.445347
   6 O :   -0.887017
   7 H :    0.442159
   8 H :    0.363816
   9 O :   -0.851072
  10 H :    0.452518
  11 H :    0.414616
  12 O :   -0.770488
  13 H :    0.413232
  14 H :    0.397993
  15 O :   -0.806968
  16 H :    0.364845
  17 H :    0.430667
  18 O :   -0.785413
  19 H :    0.405889
  20 H :    0.454438
  21 O :   -0.800534
  22 H :    0.442763
  23 H :    0.384535
  24 O :   -0.769104
  25 H :    0.413453
  26 H :    0.411539
  27 O :   -0.858847
  28 H :    0.367140
  29 H :    0.429465
  30 O :   -0.786893
  31 H :    0.397581
  32 H :    0.369764
  33 O :   -0.813613
  34 H :    0.337069
  35 H :    0.363989
  36 O :   -0.790258
  37 H :    0.429420
  38 H :    0.432396
  39 O :   -0.728561
  40 H :    0.399073
  41 H :    0.408787
  42 O :   -0.944214
  43 H :    0.487162
  44 H :    0.395613
  45 O :   -0.868902
  46 H :    0.367662
  47 H :    0.429674
  48 O :   -0.772965
  49 H :    0.421841
  50 H :    0.387812
  51 O :   -0.840281
  52 H :    0.363904
  53 H :    0.411677
  54 O :   -0.734086
  55 H :    0.397944
  56 H :    0.408420
  57 O :   -0.868416
  58 H :    0.438938
  59 H :    0.365270
Sum of atomic charges:   -0.0000000

LOEWDIN ATOMIC CHARGES
----------------------
   0 O :   -0.352608
   1 H :    0.202829
   2 H :    0.196279
   3 O :   -0.398061
   4 H :    0.194354
   5 H :    0.195173
   6 O :   -0.432802
   7 H :    0.194216
   8 H :    0.194008
   9 O :   -0.435358
  10 H :    0.202447
  11 H :    0.196794
  12 O :   -0.379334
  13 H :    0.200945
  14 H :    0.199442
  15 O :   -0.408582
  16 H :    0.196130
  17 H :    0.186725
  18 O :   -0.358050
  19 H :    0.197510
  20 H :    0.201268
  21 O :   -0.397298
  22 H :    0.196602
  23 H :    0.191453
  24 O :   -0.364205
  25 H :    0.201044
  26 H :    0.199752
  27 O :   -0.411247
  28 H :    0.196199
  29 H :    0.188071
  30 O :   -0.384243
  31 H :    0.205587
  32 H :    0.203032
  33 O :   -0.414116
  34 H :    0.189734
  35 H :    0.190591
  36 O :   -0.399675
  37 H :    0.199169
  38 H :    0.198777
  39 O :   -0.367788
  40 H :    0.194446
  41 H :    0.196427
  42 O :   -0.403415
  43 H :    0.198019
  44 H :    0.194991
  45 O :   -0.410289
  46 H :    0.195383
  47 H :    0.192472
  48 O :   -0.380946
  49 H :    0.194976
  50 H :    0.195364
  51 O :   -0.404847
  52 H :    0.196536
  53 H :    0.192143
  54 O :   -0.341087
  55 H :    0.199851
  56 H :    0.197882
  57 O :   -0.416528
  58 H :    0.197296
  59 H :    0.196560

  Mayer bond orders larger than 0.1
B(  0-O ,  1-H ) :   0.8265 B(  0-O ,  2-H ) :   0.8353 B(  0-O , 47-H ) :   0.1728
B(  3-O ,  4-H ) :   0.8120 B(  3-O ,  5-H ) :   0.7718 B(  3-O , 33-O ) :  -0.1278
B(  3-O , 35-H ) :   0.2388 B(  4-H ,  9-O ) :   0.1064 B(  6-O ,  7-H ) :   0.6461
B(  6-O ,  8-H ) :   0.8752 B(  7-H , 18-O ) :   0.2182 B(  9-O , 10-H ) :   0.7362
B(  9-O , 11-H ) :   0.8242 B( 10-H , 12-O ) :   0.1104 B( 12-O , 13-H ) :   0.8472
B( 12-O , 14-H ) :   0.8519 B( 15-O , 16-H ) :   0.8799 B( 15-O , 17-H ) :   0.7183
B( 17-H , 42-O ) :   0.1705 B( 18-O , 19-H ) :   0.8560 B( 18-O , 20-H ) :   0.7556
B( 18-O , 33-O ) :   0.1126 B( 21-O , 22-H ) :   0.7943 B( 21-O , 23-H ) :   0.7979
B( 21-O , 53-H ) :   0.1259 B( 23-H , 33-O ) :   0.1130 B( 24-O , 25-H ) :   0.8301
B( 24-O , 26-H ) :   0.8309 B( 24-O , 58-H ) :   0.1628 B( 27-O , 28-H ) :   0.8714
B( 27-O , 29-H ) :   0.6769 B( 29-H , 54-O ) :   0.2035 B( 30-O , 31-H ) :   0.8085
B( 30-O , 32-H ) :   0.8743 B( 33-O , 34-H ) :   0.7290 B( 33-O , 35-H ) :   0.7361
B( 33-O , 36-O ) :  -0.1349 B( 34-H , 36-O ) :   0.2620 B( 36-O , 37-H ) :   0.7955
B( 36-O , 38-H ) :   0.7814 B( 39-O , 40-H ) :   0.8501 B( 39-O , 41-H ) :   0.8364
B( 39-O , 42-O ) :   0.1191 B( 39-O , 43-H ) :   0.1284 B( 42-O , 43-H ) :   0.7030
B( 42-O , 44-H ) :   0.8230 B( 45-O , 46-H ) :   0.8700 B( 45-O , 47-H ) :   0.6964
B( 48-O , 49-H ) :   0.8332 B( 48-O , 50-H ) :   0.8764 B( 51-O , 52-H ) :   0.8749
B( 51-O , 53-H ) :   0.7429 B( 54-O , 55-H ) :   0.8518 B( 54-O , 56-H ) :   0.8113
B( 57-O , 58-H ) :   0.6932 B( 57-O , 59-H ) :   0.8736

Dispersion correction           -0.043220780
FINAL SINGLE POINT ENERGY     -1529.139122916153

DIPOLE MOMENT
-------------
                                X             Y             Z
Electronic contribution:     -0.00378       0.22838      -0.24337
Nuclear contribution   :     -0.39196      -0.35666       1.51548
                        -----------------------------------------
Total Dipole Moment    :     -0.39574      -0.12828       1.27212
                        -----------------------------------------
Magnitude (a.u.)       :      1.33842
Magnitude (Debye)      :      3.40198

                             ****ORCA TERMINATED NORMALLY****
TOTAL RUN TIME: 0 days 0 hours 48 minutes 52 seconds 889 msec
