                         Program Version 3.0.3 - RELEASE   -
|  1> ! wB97X-D3 MA-Def2-TZVP def2-TZVP/J RIJCOSX TightSCF Grid4
|  2>
|  3> %pal nprocs 1 end
|  4>
|  5> %scf
|  6>         maxiter 400
|  7> end
|  8>
|  9> * xyz  0  1
| 10> O  2.142277	-2.532633	2.060809
| 11> H  1.571599	-2.772989	1.296631
| 12> H  1.562653	-2.026593	2.671626
| 13> O  2.227539	0.783650	-0.184819
| 14> H  1.959449	1.559601	0.360528
| 15> H  2.868927	0.278360	0.380215
| 16> O  1.194091	-2.496067	-2.686271
| 17> H  1.469135	-1.510085	-2.767594
| 18> H  1.846826	-2.986976	-3.202659
| 19> O  1.361973	2.820891	1.462201
| 20> H  1.902679	2.380642	2.179346
| 21> H  0.438229	2.816411	1.802709
| 22> O  2.620020	1.288421	3.244090
| 23> H  3.231688	0.712854	2.738920
| 24> H  1.924490	0.649731	3.511640
| 25> O  -3.608586	0.690191	-1.050537
| 26> H  -4.384459	0.829672	-1.610588
| 27> H  -2.855241	0.413413	-1.673333
| 28> O  1.936788	-0.052108	-2.841656
| 29> H  2.188480	0.311769	-1.968654
| 30> H  1.354524	0.661265	-3.223577
| 31> O  -1.317858	0.007956	2.186576
| 32> H  -1.429485	0.981011	2.325104
| 33> H  -0.873721	-0.052842	1.290476
| 34> O  -3.342233	-1.277763	0.838444
| 35> H  -2.733521	-0.839588	1.475427
| 36> H  -3.566546	-0.571826	0.190166
| 37> O  -1.325053	2.691016	2.173929
| 38> H  -1.788042	3.306739	2.756855
| 39> H  -1.729572	2.806266	1.245071
| 40> O  0.508708	3.391924	-1.038840
| 41> H  0.984648	3.244523	-0.185987
| 42> H  0.543996	4.347224	-1.185742
| 43> O  -0.136691	-0.303515	-0.131026
| 44> H  0.088908	-1.274578	-0.096695
| 45> H  0.770407	0.121827	-0.166886
| 46> O  0.508243	-2.877983	-0.108862
| 47> H  -0.432572	-3.180869	-0.159007
| 48> H  0.852236	-2.882214	-1.039040
| 49> O  -1.521597	-2.417041	-3.023403
| 50> H  -1.801923	-2.773185	-2.153276
| 51> H  -0.553579	-2.580862	-3.060863
| 52> O  -1.507023	0.113511	-2.381116
| 53> H  -1.547864	-0.815825	-2.770513
| 54> H  -0.943018	-0.013137	-1.571344
| 55> O  3.723662	-0.582971	1.504895
| 56> H  4.629253	-0.887182	1.360606
| 57> H  3.160509	-1.411138	1.699479
| 58> O  0.255977	1.911704	-3.462385
| 59> H  -0.514988	1.353046	-3.218803
| 60> H  0.410284	2.452635	-2.664306
| 61> O  0.745347	-0.742917	3.619548
| 62> H  0.467267	-1.014366	4.504959
| 63> H  -0.095525	-0.478805	3.134192
| 64> O  -2.143713	2.883452	-0.247417
| 65> H  -1.293044	2.908407	-0.730221
| 66> H  -2.683752	2.133055	-0.584010
| 67> O  -2.131779	-3.173169	-0.406030
| 68> H  -2.608030	-2.418981	0.091562
| 69> H  -2.655522	-3.966396	-0.229075
| 70> **                         ****END OF INPUT****

CARTESIAN COORDINATES (ANGSTROEM)
---------------------------------
  O      2.142277   -2.532633    2.060809
  H      1.571599   -2.772989    1.296631
  H      1.562653   -2.026593    2.671626
  O      2.227539    0.783650   -0.184819
  H      1.959449    1.559601    0.360528
  H      2.868927    0.278360    0.380215
  O      1.194091   -2.496067   -2.686271
  H      1.469135   -1.510085   -2.767594
  H      1.846826   -2.986976   -3.202659
  O      1.361973    2.820891    1.462201
  H      1.902679    2.380642    2.179346
  H      0.438229    2.816411    1.802709
  O      2.620020    1.288421    3.244090
  H      3.231688    0.712854    2.738920
  H      1.924490    0.649731    3.511640
  O     -3.608586    0.690191   -1.050537
  H     -4.384459    0.829672   -1.610588
  H     -2.855241    0.413413   -1.673333
  O      1.936788   -0.052108   -2.841656
  H      2.188480    0.311769   -1.968654
  H      1.354524    0.661265   -3.223577
  O     -1.317858    0.007956    2.186576
  H     -1.429485    0.981011    2.325104
  H     -0.873721   -0.052842    1.290476
  O     -3.342233   -1.277763    0.838444
  H     -2.733521   -0.839588    1.475427
  H     -3.566546   -0.571826    0.190166
  O     -1.325053    2.691016    2.173929
  H     -1.788042    3.306739    2.756855
  H     -1.729572    2.806266    1.245071
  O      0.508708    3.391924   -1.038840
  H      0.984648    3.244523   -0.185987
  H      0.543996    4.347224   -1.185742
  O     -0.136691   -0.303515   -0.131026
  H      0.088908   -1.274578   -0.096695
  H      0.770407    0.121827   -0.166886
  O      0.508243   -2.877983   -0.108862
  H     -0.432572   -3.180869   -0.159007
  H      0.852236   -2.882214   -1.039040
  O     -1.521597   -2.417041   -3.023403
  H     -1.801923   -2.773185   -2.153276
  H     -0.553579   -2.580862   -3.060863
  O     -1.507023    0.113511   -2.381116
  H     -1.547864   -0.815825   -2.770513
  H     -0.943018   -0.013137   -1.571344
  O      3.723662   -0.582971    1.504895
  H      4.629253   -0.887182    1.360606
  H      3.160509   -1.411138    1.699479
  O      0.255977    1.911704   -3.462385
  H     -0.514988    1.353046   -3.218803
  H      0.410284    2.452635   -2.664306
  O      0.745347   -0.742917    3.619548
  H      0.467267   -1.014366    4.504959
  H     -0.095525   -0.478805    3.134192
  O     -2.143713    2.883452   -0.247417
  H     -1.293044    2.908407   -0.730221
  H     -2.683752    2.133055   -0.584010
  O     -2.131779   -3.173169   -0.406030
  H     -2.608030   -2.418981    0.091562
  H     -2.655522   -3.966396   -0.229075

 Total Charge           Charge          ....    0
 Multiplicity           Mult            ....    1
 Number of Electrons    NEL             ....  200
 Basis Dimension        Dim             ....  940

ORBITAL ENERGIES
----------------

  NO   OCC          E(Eh)            E(eV)
   0   2.0000     -19.261792      -524.1400
   1   2.0000     -19.256634      -523.9997
   2   2.0000     -19.256314      -523.9909
   3   2.0000     -19.250524      -523.8334
   4   2.0000     -19.250140      -523.8230
   5   2.0000     -19.250088      -523.8215
   6   2.0000     -19.245596      -523.6993
   7   2.0000     -19.242258      -523.6085
   8   2.0000     -19.240131      -523.5506
   9   2.0000     -19.239943      -523.5455
  10   2.0000     -19.239786      -523.5412
  11   2.0000     -19.239274      -523.5272
  12   2.0000     -19.235986      -523.4378
  13   2.0000     -19.229777      -523.2688
  14   2.0000     -19.229218      -523.2536
  15   2.0000     -19.228614      -523.2372
  16   2.0000     -19.224942      -523.1373
  17   2.0000     -19.221566      -523.0454
  18   2.0000     -19.216764      -522.9147
  19   2.0000     -19.212896      -522.8095
  20   2.0000      -1.162869       -31.6433
  21   2.0000      -1.155846       -31.4522
  22   2.0000      -1.152373       -31.3577
  23   2.0000      -1.151976       -31.3469
  24   2.0000      -1.146703       -31.2034
  25   2.0000      -1.145671       -31.1753
  26   2.0000      -1.142297       -31.0835
  27   2.0000      -1.139397       -31.0046
  28   2.0000      -1.133512       -30.8444
  29   2.0000      -1.129826       -30.7441
  30   2.0000      -1.126651       -30.6577
  31   2.0000      -1.125300       -30.6210
  32   2.0000      -1.119067       -30.4514
  33   2.0000      -1.114873       -30.3372
  34   2.0000      -1.113565       -30.3016
  35   2.0000      -1.110261       -30.2117
  36   2.0000      -1.108897       -30.1746
  37   2.0000      -1.105564       -30.0839
  38   2.0000      -1.099463       -29.9179
  39   2.0000      -1.093122       -29.7454
  40   2.0000      -0.673179       -18.3181
  41   2.0000      -0.666907       -18.1475
  42   2.0000      -0.661261       -17.9938
  43   2.0000      -0.660507       -17.9733
  44   2.0000      -0.658170       -17.9097
  45   2.0000      -0.656494       -17.8641
  46   2.0000      -0.652747       -17.7622
  47   2.0000      -0.649873       -17.6840
  48   2.0000      -0.647900       -17.6303
  49   2.0000      -0.645529       -17.5657
  50   2.0000      -0.643793       -17.5185
  51   2.0000      -0.639922       -17.4132
  52   2.0000      -0.634902       -17.2766
  53   2.0000      -0.632201       -17.2031
  54   2.0000      -0.627430       -17.0732
  55   2.0000      -0.627070       -17.0635
  56   2.0000      -0.625849       -17.0302
  57   2.0000      -0.622331       -16.9345
  58   2.0000      -0.619572       -16.8594
  59   2.0000      -0.611581       -16.6420
  60   2.0000      -0.575983       -15.6733
  61   2.0000      -0.566298       -15.4098
  62   2.0000      -0.562711       -15.3121
  63   2.0000      -0.553161       -15.0523
  64   2.0000      -0.548658       -14.9297
  65   2.0000      -0.542006       -14.7487
  66   2.0000      -0.529418       -14.4062
  67   2.0000      -0.528917       -14.3926
  68   2.0000      -0.520491       -14.1633
  69   2.0000      -0.512826       -13.9547
  70   2.0000      -0.504473       -13.7274
  71   2.0000      -0.500746       -13.6260
  72   2.0000      -0.498194       -13.5565
  73   2.0000      -0.492257       -13.3950
  74   2.0000      -0.490275       -13.3411
  75   2.0000      -0.482992       -13.1429
  76   2.0000      -0.475751       -12.9458
  77   2.0000      -0.472812       -12.8659
  78   2.0000      -0.469744       -12.7824
  79   2.0000      -0.453922       -12.3519
  80   2.0000      -0.445598       -12.1253
  81   2.0000      -0.442280       -12.0350
  82   2.0000      -0.438482       -11.9317
  83   2.0000      -0.436684       -11.8828
  84   2.0000      -0.434822       -11.8321
  85   2.0000      -0.434081       -11.8119
  86   2.0000      -0.431961       -11.7543
  87   2.0000      -0.430873       -11.7247
  88   2.0000      -0.429622       -11.6906
  89   2.0000      -0.427289       -11.6271
  90   2.0000      -0.426279       -11.5996
  91   2.0000      -0.425202       -11.5703
  92   2.0000      -0.420344       -11.4381
  93   2.0000      -0.418068       -11.3762
  94   2.0000      -0.416582       -11.3358
  95   2.0000      -0.415334       -11.3018
  96   2.0000      -0.407443       -11.0871
  97   2.0000      -0.405365       -11.0305
  98   2.0000      -0.403918       -10.9912
  99   2.0000      -0.393493       -10.7075
 100   0.0000       0.045327         1.2334
 101   0.0000       0.061372         1.6700
 102   0.0000       0.066447         1.8081
 103   0.0000       0.069135         1.8813
 104   0.0000       0.081507         2.2179

MULLIKEN ATOMIC CHARGES
-----------------------
   0 O :   -0.744144
   1 H :    0.427487
   2 H :    0.379624
   3 O :   -0.774403
   4 H :    0.340051
   5 H :    0.439627
   6 O :   -0.858045
   7 H :    0.437707
   8 H :    0.364135
   9 O :   -0.813221
  10 H :    0.432869
  11 H :    0.414048
  12 O :   -0.752051
  13 H :    0.395863
  14 H :    0.386796
  15 O :   -0.791384
  16 H :    0.362981
  17 H :    0.415268
  18 O :   -0.784870
  19 H :    0.388054
  20 H :    0.439442
  21 O :   -0.765525
  22 H :    0.423202
  23 H :    0.370704
  24 O :   -0.769825
  25 H :    0.404188
  26 H :    0.411884
  27 O :   -0.831787
  28 H :    0.364736
  29 H :    0.421357
  30 O :   -0.792184
  31 H :    0.390905
  32 H :    0.370327
  33 O :   -0.772031
  34 H :    0.341064
  35 H :    0.362808
  36 O :   -0.799939
  37 H :    0.422682
  38 H :    0.426735
  39 O :   -0.738302
  40 H :    0.390832
  41 H :    0.402733
  42 O :   -0.907487
  43 H :    0.474917
  44 H :    0.371173
  45 O :   -0.849492
  46 H :    0.365056
  47 H :    0.421234
  48 O :   -0.756683
  49 H :    0.407360
  50 H :    0.383494
  51 O :   -0.821274
  52 H :    0.361184
  53 H :    0.404255
  54 O :   -0.715533
  55 H :    0.380318
  56 H :    0.390651
  57 O :   -0.844211
  58 H :    0.431492
  59 H :    0.363148
Sum of atomic charges:    0.0000000

LOEWDIN ATOMIC CHARGES
----------------------
   0 O :   -0.355121
   1 H :    0.192768
   2 H :    0.187931
   3 O :   -0.381908
   4 H :    0.189307
   5 H :    0.188293
   6 O :   -0.400213
   7 H :    0.191832
   8 H :    0.191344
   9 O :   -0.414493
  10 H :    0.195579
  11 H :    0.194405
  12 O :   -0.376736
  13 H :    0.192717
  14 H :    0.190484
  15 O :   -0.387812
  16 H :    0.192315
  17 H :    0.180590
  18 O :   -0.368194
  19 H :    0.194109
  20 H :    0.192064
  21 O :   -0.387422
  22 H :    0.190594
  23 H :    0.184519
  24 O :   -0.356712
  25 H :    0.192721
  26 H :    0.191613
  27 O :   -0.390235
  28 H :    0.191865
  29 H :    0.187076
  30 O :   -0.375348
  31 H :    0.198828
  32 H :    0.198444
  33 O :   -0.397400
  34 H :    0.185832
  35 H :    0.183431
  36 O :   -0.383161
  37 H :    0.191223
  38 H :    0.194393
  39 O :   -0.365444
  40 H :    0.187642
  41 H :    0.188153
  42 O :   -0.392974
  43 H :    0.193122
  44 H :    0.188424
  45 O :   -0.388074
  46 H :    0.191585
  47 H :    0.188278
  48 O :   -0.372074
  49 H :    0.187984
  50 H :    0.187226
  51 O :   -0.384350
  52 H :    0.192544
  53 H :    0.188772
  54 O :   -0.349807
  55 H :    0.193374
  56 H :    0.191067
  57 O :   -0.396005
  58 H :    0.188643
  59 H :    0.192394

  Mayer bond orders larger than 0.1
B(  0-O ,  1-H ) :   0.8425 B(  0-O ,  2-H ) :   0.8551 B(  0-O , 47-H ) :   0.1337
B(  3-O ,  4-H ) :   0.8448 B(  3-O ,  5-H ) :   0.7944 B(  3-O , 33-O ) :  -0.1121
B(  3-O , 35-H ) :   0.1903 B(  6-O ,  7-H ) :   0.7208 B(  6-O ,  8-H ) :   0.8762
B(  7-H , 18-O ) :   0.1251 B(  9-O , 10-H ) :   0.7814 B(  9-O , 11-H ) :   0.8474
B( 12-O , 13-H ) :   0.8633 B( 12-O , 14-H ) :   0.8630 B( 15-O , 16-H ) :   0.8799
B( 15-O , 17-H ) :   0.7569 B( 17-H , 42-O ) :   0.1323 B( 18-O , 19-H ) :   0.8703
B( 18-O , 20-H ) :   0.7791 B( 21-O , 22-H ) :   0.8191 B( 21-O , 23-H ) :   0.8164
B( 24-O , 25-H ) :   0.8466 B( 24-O , 26-H ) :   0.8438 B( 24-O , 58-H ) :   0.1298
B( 27-O , 28-H ) :   0.8754 B( 27-O , 29-H ) :   0.7443 B( 29-H , 54-O ) :   0.1206
B( 30-O , 31-H ) :   0.8295 B( 30-O , 32-H ) :   0.8767 B( 33-O , 34-H ) :   0.7802
B( 33-O , 35-H ) :   0.7823 B( 33-O , 36-O ) :  -0.1110 B( 34-H , 36-O ) :   0.2039
B( 36-O , 37-H ) :   0.8106 B( 36-O , 38-H ) :   0.8101 B( 39-O , 40-H ) :   0.8658
B( 39-O , 41-H ) :   0.8507 B( 39-O , 42-O ) :   0.1206 B( 42-O , 43-H ) :   0.7597
B( 42-O , 44-H ) :   0.8490 B( 45-O , 46-H ) :   0.8728 B( 45-O , 47-H ) :   0.7344
B( 48-O , 49-H ) :   0.8535 B( 48-O , 50-H ) :   0.8857 B( 51-O , 52-H ) :   0.8777
B( 51-O , 53-H ) :   0.7763 B( 54-O , 55-H ) :   0.8665 B( 54-O , 56-H ) :   0.8224
B( 57-O , 58-H ) :   0.7271 B( 57-O , 59-H ) :   0.8762

Dispersion correction           -0.042174117
FINAL SINGLE POINT ENERGY     -1529.165009323467

DIPOLE MOMENT
-------------
                                X             Y             Z
Electronic contribution:      0.04245       0.13126      -0.17992
Nuclear contribution   :     -0.53637      -0.36881       1.41258
                        -----------------------------------------
Total Dipole Moment    :     -0.49392      -0.23755       1.23267
                        -----------------------------------------
Magnitude (a.u.)       :      1.34902
Magnitude (Debye)      :      3.42894

                             ****ORCA TERMINATED NORMALLY****
TOTAL RUN TIME: 0 days 0 hours 46 minutes 35 seconds 875 msec
