                         Program Version 4.2.0 -  RELEASE  -
|  1> # 12h2o.su.etal.mol1,2,5,8,9,11
|  2> ! MP2 def2-TZVP EnGrad TightSCF
|  3>
|  4> %pal
|  5>     nprocs 6
|  6> end
|  7>
|  8> %maxcore 8000
|  9>
| 10> %scf
| 11>     ConvForced true
| 12> end
| 13>
| 14> *xyz 0 1
| 15> O  -1.794470000  -0.923410000   2.768350000
| 16> H  -2.338250000  -1.359750000   3.430940000
| 17> H  -0.879480000  -1.303000000   2.865760000
| 18> O   0.923410000  -1.794470000  -2.768350000
| 19> H   1.359750000  -2.338250000  -3.430940000
| 20> H   1.303000000  -0.879480000  -2.865760000
| 21> O   0.885520000  -1.737840000   0.052730000
| 22> H   1.284090000  -0.839590000   0.017130000
| 23> H   1.032320000  -2.090180000  -0.841890000
| 24> O   1.752130000   0.741530000  -2.896280000
| 25> H   2.036450000   0.920500000  -1.984040000
| 26> H   0.921210000   1.242140000  -2.984230000
| 27> O   0.741530000  -1.752130000   2.896280000
| 28> H   0.920500000  -2.036450000   1.984040000
| 29> H   1.242140000  -0.921210000   2.984230000
| 30> O  -0.741530000   1.752130000   2.896280000
| 31> H  -0.920500000   2.036450000   1.984040000
| 32> H  -1.242140000   0.921210000   2.984230000
| 33> *
| 34>
| 35>                          ****END OF INPUT****

CARTESIAN COORDINATES (ANGSTROEM)
---------------------------------
  O     -1.794470   -0.923410    2.768350
  H     -2.338250   -1.359750    3.430940
  H     -0.879480   -1.303000    2.865760
  O      0.923410   -1.794470   -2.768350
  H      1.359750   -2.338250   -3.430940
  H      1.303000   -0.879480   -2.865760
  O      0.885520   -1.737840    0.052730
  H      1.284090   -0.839590    0.017130
  H      1.032320   -2.090180   -0.841890
  O      1.752130    0.741530   -2.896280
  H      2.036450    0.920500   -1.984040
  H      0.921210    1.242140   -2.984230
  O      0.741530   -1.752130    2.896280
  H      0.920500   -2.036450    1.984040
  H      1.242140   -0.921210    2.984230
  O     -0.741530    1.752130    2.896280
  H     -0.920500    2.036450    1.984040
  H     -1.242140    0.921210    2.984230

 Total Charge           Charge          ....    0
 Multiplicity           Mult            ....    1
 Number of Electrons    NEL             ....   60
 Basis Dimension        Dim             ....  258

ORBITAL ENERGIES
----------------

  NO   OCC          E(Eh)            E(eV)
   0   2.0000     -20.623896      -561.2047
   1   2.0000     -20.566404      -559.6403
   2   2.0000     -20.564470      -559.5877
   3   2.0000     -20.559356      -559.4485
   4   2.0000     -20.529121      -558.6258
   5   2.0000     -20.526977      -558.5674
   6   2.0000      -1.409303       -38.3491
   7   2.0000      -1.357584       -36.9417
   8   2.0000      -1.348594       -36.6971
   9   2.0000      -1.338458       -36.4213
  10   2.0000      -1.316144       -35.8141
  11   2.0000      -1.305373       -35.5210
  12   2.0000      -0.766411       -20.8551
  13   2.0000      -0.730684       -19.8829
  14   2.0000      -0.721612       -19.6361
  15   2.0000      -0.706448       -19.2234
  16   2.0000      -0.697240       -18.9729
  17   2.0000      -0.676075       -18.3969
  18   2.0000      -0.647178       -17.6106
  19   2.0000      -0.611255       -16.6331
  20   2.0000      -0.595951       -16.2166
  21   2.0000      -0.580532       -15.7971
  22   2.0000      -0.562549       -15.3077
  23   2.0000      -0.547776       -14.9057
  24   2.0000      -0.540600       -14.7105
  25   2.0000      -0.513181       -13.9644
  26   2.0000      -0.507934       -13.8216
  27   2.0000      -0.500029       -13.6065
  28   2.0000      -0.479733       -13.0542
  29   2.0000      -0.473513       -12.8849
  30   0.0000       0.072291         1.9672
  31   0.0000       0.126764         3.4494
  32   0.0000       0.147997         4.0272
  33   0.0000       0.153839         4.1862
  34   0.0000       0.176609         4.8058

MULLIKEN ATOMIC CHARGES
-----------------------
   0 O :   -0.738418
   1 H :    0.334214
   2 H :    0.384671
   3 O :   -0.733441
   4 H :    0.341176
   5 H :    0.368183
   6 O :   -0.702288
   7 H :    0.308998
   8 H :    0.383928
   9 O :   -0.673136
  10 H :    0.352736
  11 H :    0.369641
  12 O :   -0.702393
  13 H :    0.389950
  14 H :    0.346213
  15 O :   -0.715252
  16 H :    0.320873
  17 H :    0.364345
Sum of atomic charges:    0.0000000

LOEWDIN ATOMIC CHARGES
----------------------
   0 O :   -0.339841
   1 H :    0.152490
   2 H :    0.146342
   3 O :   -0.337519
   4 H :    0.156148
   5 H :    0.142902
   6 O :   -0.323148
   7 H :    0.157473
   8 H :    0.156815
   9 O :   -0.265316
  10 H :    0.171051
  11 H :    0.181843
  12 O :   -0.277736
  13 H :    0.159813
  14 H :    0.168483
  15 O :   -0.353852
  16 H :    0.155911
  17 H :    0.148141

  Mayer bond orders larger than 0.100000
B(  0-O ,  1-H ) :   0.8521 B(  0-O ,  2-H ) :   0.7564 B(  3-O ,  4-H ) :   0.8484
B(  3-O ,  5-H ) :   0.7724 B(  6-O ,  7-H ) :   0.8600 B(  6-O ,  8-H ) :   0.7930
B(  9-O , 10-H ) :   0.8399 B(  9-O , 11-H ) :   0.8296 B( 12-O , 13-H ) :   0.7943
B( 12-O , 14-H ) :   0.8411 B( 15-O , 16-H ) :   0.8626 B( 15-O , 17-H ) :   0.7993

MP2 TOTAL ENERGY:     -457.922517559 Eh
FINAL SINGLE POINT ENERGY      -457.922517558677

DIPOLE MOMENT
-------------
                                X             Y             Z
Electronic contribution:      0.12425      -0.19237      -0.26506
Nuclear contribution   :      0.98710       0.64988      -1.46039
                        -----------------------------------------
Total Dipole Moment    :      1.11135       0.45751      -1.72545
                        -----------------------------------------
Magnitude (a.u.)       :      2.10276
Magnitude (Debye)      :      5.34479

Rotational constants in cm-1:     0.062723     0.019584     0.016762
Rotational constants in MHz :  1880.396996   587.100542   502.519882

                             ****ORCA TERMINATED NORMALLY****
TOTAL RUN TIME: 0 days 0 hours 0 minutes 54 seconds 76 msec
