                         Program Version 4.2.0 -  RELEASE  -
|  1> # 12mecn.remya.etal.2.mol3,5,11
|  2> ! MP2 def2-TZVP EnGrad TightSCF
|  3>
|  4> %pal
|  5>     nprocs 6
|  6> end
|  7>
|  8> %maxcore 8000
|  9>
| 10> %scf
| 11>     ConvForced true
| 12> end
| 13>
| 14> *xyz 0 1
| 15> C  -5.181310000   2.853865000  -1.626100000
| 16> H  -5.488260000   3.811434000  -2.053310000
| 17> H  -5.857590000   2.068112000  -1.968630000
| 18> H  -4.170750000   2.611402000  -1.966640000
| 19> C  -5.187260000   2.919160000  -0.181450000
| 20> N  -5.181700000   2.970641000   0.983640000
| 21> C  -1.955700000   2.515080000   1.698463000
| 22> H  -2.923830000   2.883163000   2.049269000
| 23> H  -1.154850000   3.171830000   2.050990000
| 24> H  -1.790380000   1.506115000   2.087896000
| 25> C  -1.948230000   2.482156000   0.253672000
| 26> N  -1.937550000   2.462523000  -0.913150000
| 27> C   4.214163000   3.378139000   1.593627000
| 28> H   3.242643000   3.657109000   2.012358000
| 29> H   4.969258000   4.086643000   1.941290000
| 30> H   4.482966000   2.372549000   1.931698000
| 31> C   4.130759000   3.388436000   0.150192000
| 32> N   4.050180000   3.381449000  -1.013420000
| 33> *
| 34>
| 35>                          ****END OF INPUT****

CARTESIAN COORDINATES (ANGSTROEM)
---------------------------------
  C     -5.181310    2.853865   -1.626100
  H     -5.488260    3.811434   -2.053310
  H     -5.857590    2.068112   -1.968630
  H     -4.170750    2.611402   -1.966640
  C     -5.187260    2.919160   -0.181450
  N     -5.181700    2.970641    0.983640
  C     -1.955700    2.515080    1.698463
  H     -2.923830    2.883163    2.049269
  H     -1.154850    3.171830    2.050990
  H     -1.790380    1.506115    2.087896
  C     -1.948230    2.482156    0.253672
  N     -1.937550    2.462523   -0.913150
  C      4.214163    3.378139    1.593627
  H      3.242643    3.657109    2.012358
  H      4.969258    4.086643    1.941290
  H      4.482966    2.372549    1.931698
  C      4.130759    3.388436    0.150192
  N      4.050180    3.381449   -1.013420

 Total Charge           Charge          ....    0
 Multiplicity           Mult            ....    1
 Number of Electrons    NEL             ....   66
 Basis Dimension        Dim             ....  333

ORBITAL ENERGIES
----------------

  NO   OCC          E(Eh)            E(eV)
   0   2.0000     -15.573074      -423.7649
   1   2.0000     -15.571200      -423.7139
   2   2.0000     -15.571038      -423.7095
   3   2.0000     -11.286604      -307.1241
   4   2.0000     -11.283263      -307.0332
   5   2.0000     -11.282470      -307.0116
   6   2.0000     -11.279600      -306.9335
   7   2.0000     -11.273719      -306.7735
   8   2.0000     -11.270658      -306.6902
   9   2.0000      -1.218146       -33.1474
  10   2.0000      -1.214332       -33.0437
  11   2.0000      -1.213785       -33.0288
  12   2.0000      -1.044637       -28.4260
  13   2.0000      -1.036994       -28.2180
  14   2.0000      -1.033497       -28.1229
  15   2.0000      -0.701424       -19.0867
  16   2.0000      -0.695636       -18.9292
  17   2.0000      -0.691196       -18.8084
  18   2.0000      -0.633235       -17.2312
  19   2.0000      -0.632194       -17.2029
  20   2.0000      -0.631405       -17.1814
  21   2.0000      -0.623661       -16.9707
  22   2.0000      -0.621561       -16.9135
  23   2.0000      -0.614009       -16.7080
  24   2.0000      -0.559155       -15.2154
  25   2.0000      -0.555595       -15.1185
  26   2.0000      -0.555366       -15.1123
  27   2.0000      -0.460286       -12.5250
  28   2.0000      -0.458937       -12.4883
  29   2.0000      -0.457485       -12.4488
  30   2.0000      -0.457414       -12.4469
  31   2.0000      -0.456706       -12.4276
  32   2.0000      -0.455637       -12.3985
  33   0.0000       0.105630         2.8743
  34   0.0000       0.130773         3.5585
  35   0.0000       0.141414         3.8481
  36   0.0000       0.163336         4.4446
  37   0.0000       0.169599         4.6150

MULLIKEN ATOMIC CHARGES
-----------------------
   0 C :   -0.287064
   1 H :    0.166832
   2 H :    0.166076
   3 H :    0.207468
   4 C :   -0.101737
   5 N :   -0.151543
   6 C :   -0.285383
   7 H :    0.206027
   8 H :    0.161183
   9 H :    0.166523
  10 C :   -0.100968
  11 N :   -0.147414
  12 C :   -0.280149
  13 H :    0.167357
  14 H :    0.172846
  15 H :    0.172536
  16 C :   -0.145442
  17 N :   -0.087149
Sum of atomic charges:    0.0000000

LOEWDIN ATOMIC CHARGES
----------------------
   0 C :   -0.281993
   1 H :    0.151440
   2 H :    0.150612
   3 H :    0.157762
   4 C :   -0.206556
   5 N :    0.029061
   6 C :   -0.283540
   7 H :    0.156947
   8 H :    0.149326
   9 H :    0.152475
  10 C :   -0.208583
  11 N :    0.033052
  12 C :   -0.284821
  13 H :    0.151343
  14 H :    0.151123
  15 H :    0.152855
  16 C :   -0.220046
  17 N :    0.049543

  Mayer bond orders larger than 0.100000
B(  0-C ,  1-H ) :   0.9144 B(  0-C ,  2-H ) :   0.9161 B(  0-C ,  3-H ) :   0.9009
B(  0-C ,  4-C ) :   0.9024 B(  4-C ,  5-N ) :   2.7721 B(  6-C ,  7-H ) :   0.9012
B(  6-C ,  8-H ) :   0.9180 B(  6-C ,  9-H ) :   0.9154 B(  6-C , 10-C ) :   0.9008
B( 10-C , 11-N ) :   2.7655 B( 12-C , 13-H ) :   0.9178 B( 12-C , 14-H ) :   0.9166
B( 12-C , 15-H ) :   0.9168 B( 12-C , 16-C ) :   0.9021 B( 16-C , 17-N ) :   2.8339

MP2 TOTAL ENERGY:     -397.458535971 Eh
FINAL SINGLE POINT ENERGY      -397.458535971292

DIPOLE MOMENT
-------------
                                X             Y             Z
Electronic contribution:     -0.18626       0.11684      -3.16091
Nuclear contribution   :      0.27500      -0.16315       4.63141
                        -----------------------------------------
Total Dipole Moment    :      0.08875      -0.04631       1.47050
                        -----------------------------------------
Magnitude (a.u.)       :      1.47390
Magnitude (Debye)      :      3.74637

Rotational constants in cm-1:     0.093978     0.009010     0.008335
Rotational constants in MHz :  2817.380762   270.119845   249.867081

                             ****ORCA TERMINATED NORMALLY****
TOTAL RUN TIME: 0 days 0 hours 2 minutes 46 seconds 873 msec
