                         Program Version 4.2.0 -  RELEASE  -
|  1> # 12meoh.boyd.etal.mol3,7,9
|  2> ! MP2 def2-TZVP EnGrad TightSCF
|  3>
|  4> %pal
|  5>     nprocs 6
|  6> end
|  7>
|  8> %maxcore 8000
|  9>
| 10> %scf
| 11>     ConvForced true
| 12> end
| 13>
| 14> *xyz 0 1
| 15> O  -3.821405976  -2.118091637   0.596795346
| 16> H  -4.342989117  -1.344303030   0.251966383
| 17> C  -3.443883586  -1.809641231   1.934889393
| 18> H  -2.831494349  -2.637429600   2.305201764
| 19> H  -4.325601146  -1.719364371   2.585074667
| 20> H  -2.858527126  -0.882644791   1.996110694
| 21> O   4.310535586  -1.588322800   0.656128299
| 22> H   3.804372199  -1.630404735  -0.196849819
| 23> C   4.312298137  -2.894980854   1.222112691
| 24> H   4.713177833  -2.819907076   2.237066773
| 25> H   4.957796734  -3.574699304   0.648211180
| 26> H   3.302735989  -3.324433205   1.269756773
| 27> O   1.390610024   3.194080770  -1.536658882
| 28> H   2.162932299   2.881562730  -0.993525056
| 29> C   1.202977189   4.580367182  -1.302880219
| 30> H   0.374773115   4.915764831  -1.934164643
| 31> H   2.098649340   5.157710875  -1.570472348
| 32> H   0.950320401   4.800436015  -0.254328827
| 33> *
| 34>
| 35>                          ****END OF INPUT****

CARTESIAN COORDINATES (ANGSTROEM)
---------------------------------
  O     -3.821406   -2.118092    0.596795
  H     -4.342989   -1.344303    0.251966
  C     -3.443884   -1.809641    1.934889
  H     -2.831494   -2.637430    2.305202
  H     -4.325601   -1.719364    2.585075
  H     -2.858527   -0.882645    1.996111
  O      4.310536   -1.588323    0.656128
  H      3.804372   -1.630405   -0.196850
  C      4.312298   -2.894981    1.222113
  H      4.713178   -2.819907    2.237067
  H      4.957797   -3.574699    0.648211
  H      3.302736   -3.324433    1.269757
  O      1.390610    3.194081   -1.536659
  H      2.162932    2.881563   -0.993525
  C      1.202977    4.580367   -1.302880
  H      0.374773    4.915765   -1.934165
  H      2.098649    5.157711   -1.570472
  H      0.950320    4.800436   -0.254329

 Total Charge           Charge          ....    0
 Multiplicity           Mult            ....    1
 Number of Electrons    NEL             ....   54
 Basis Dimension        Dim             ....  258

ORBITAL ENERGIES
----------------

  NO   OCC          E(Eh)            E(eV)
   0   2.0000     -20.557634      -559.4016
   1   2.0000     -20.556759      -559.3778
   2   2.0000     -20.556755      -559.3777
   3   2.0000     -11.271569      -306.7150
   4   2.0000     -11.271001      -306.6995
   5   2.0000     -11.270857      -306.6956
   6   2.0000      -1.347486       -36.6670
   7   2.0000      -1.347332       -36.6628
   8   2.0000      -1.345839       -36.6221
   9   2.0000      -0.919560       -25.0225
  10   2.0000      -0.918936       -25.0055
  11   2.0000      -0.918345       -24.9894
  12   2.0000      -0.682128       -18.5617
  13   2.0000      -0.682001       -18.5582
  14   2.0000      -0.680282       -18.5114
  15   2.0000      -0.616984       -16.7890
  16   2.0000      -0.616642       -16.7797
  17   2.0000      -0.616453       -16.7745
  18   2.0000      -0.591790       -16.1034
  19   2.0000      -0.591094       -16.0845
  20   2.0000      -0.589262       -16.0346
  21   2.0000      -0.501142       -13.6368
  22   2.0000      -0.499913       -13.6033
  23   2.0000      -0.498730       -13.5711
  24   2.0000      -0.449272       -12.2253
  25   2.0000      -0.448581       -12.2065
  26   2.0000      -0.447949       -12.1893
  27   0.0000       0.128112         3.4861
  28   0.0000       0.136261         3.7079
  29   0.0000       0.142497         3.8775
  30   0.0000       0.172581         4.6962
  31   0.0000       0.176928         4.8144

MULLIKEN ATOMIC CHARGES
-----------------------
   0 O :   -0.495387
   1 H :    0.321696
   2 C :   -0.174995
   3 H :    0.127716
   4 H :    0.109029
   5 H :    0.111941
   6 O :   -0.499915
   7 H :    0.323167
   8 C :   -0.174157
   9 H :    0.128222
  10 H :    0.109952
  11 H :    0.112750
  12 O :   -0.499467
  13 H :    0.324292
  14 C :   -0.170515
  15 H :    0.128083
  16 H :    0.109429
  17 H :    0.108159
Sum of atomic charges:   -0.0000000

LOEWDIN ATOMIC CHARGES
----------------------
   0 O :   -0.109918
   1 H :    0.190990
   2 C :   -0.382175
   3 H :    0.109954
   4 H :    0.095336
   5 H :    0.095812
   6 O :   -0.110853
   7 H :    0.190052
   8 C :   -0.380983
   9 H :    0.109709
  10 H :    0.095663
  11 H :    0.096421
  12 O :   -0.106488
  13 H :    0.191583
  14 C :   -0.385790
  15 H :    0.110108
  16 H :    0.095418
  17 H :    0.095160

  Mayer bond orders larger than 0.100000
B(  0-O ,  1-H ) :   0.8426 B(  0-O ,  2-C ) :   0.9267 B(  2-C ,  3-H ) :   0.9378
B(  2-C ,  4-H ) :   0.9391 B(  2-C ,  5-H ) :   0.9385 B(  6-O ,  7-H ) :   0.8422
B(  6-O ,  8-C ) :   0.9253 B(  8-C ,  9-H ) :   0.9377 B(  8-C , 10-H ) :   0.9384
B(  8-C , 11-H ) :   0.9402 B( 12-O , 13-H ) :   0.8404 B( 12-O , 14-C ) :   0.9277
B( 14-C , 15-H ) :   0.9376 B( 14-C , 16-H ) :   0.9403 B( 14-C , 17-H ) :   0.9375

MP2 TOTAL ENERGY:     -346.520522195 Eh
FINAL SINGLE POINT ENERGY      -346.520522195440

DIPOLE MOMENT
-------------
                                X             Y             Z
Electronic contribution:     -0.20649      -0.57979      -2.64712
Nuclear contribution   :      0.12867       0.98602       3.11100
                        -----------------------------------------
Total Dipole Moment    :     -0.07782       0.40623       0.46388
                        -----------------------------------------
Magnitude (a.u.)       :      0.62150
Magnitude (Debye)      :      1.57973

Rotational constants in cm-1:     0.019122     0.014796     0.008557
Rotational constants in MHz :   573.258173   443.579140   256.522396

                             ****ORCA TERMINATED NORMALLY****
TOTAL RUN TIME: 0 days 0 hours 0 minutes 43 seconds 984 msec
