                         Program Version 4.2.0 -  RELEASE  -
|  1> # 12h2o.su.etal.mol1,2,5,8,10
|  2> ! MP2 def2-TZVP EnGrad TightSCF
|  3>
|  4> %pal
|  5>     nprocs 6
|  6> end
|  7>
|  8> %maxcore 8000
|  9>
| 10> %scf
| 11>     ConvForced true
| 12> end
| 13>
| 14> *xyz 0 1
| 15> O  -1.794470000  -0.923410000   2.768350000
| 16> H  -2.338250000  -1.359750000   3.430940000
| 17> H  -0.879480000  -1.303000000   2.865760000
| 18> O   0.923410000  -1.794470000  -2.768350000
| 19> H   1.359750000  -2.338250000  -3.430940000
| 20> H   1.303000000  -0.879480000  -2.865760000
| 21> O   0.885520000  -1.737840000   0.052730000
| 22> H   1.284090000  -0.839590000   0.017130000
| 23> H   1.032320000  -2.090180000  -0.841890000
| 24> O   1.752130000   0.741530000  -2.896280000
| 25> H   2.036450000   0.920500000  -1.984040000
| 26> H   0.921210000   1.242140000  -2.984230000
| 27> O  -0.923410000   1.794470000  -2.768350000
| 28> H  -1.359750000   2.338250000  -3.430940000
| 29> H  -1.303000000   0.879480000  -2.865760000
| 30> *
| 31>
| 32>                          ****END OF INPUT****

CARTESIAN COORDINATES (ANGSTROEM)
---------------------------------
  O     -1.794470   -0.923410    2.768350
  H     -2.338250   -1.359750    3.430940
  H     -0.879480   -1.303000    2.865760
  O      0.923410   -1.794470   -2.768350
  H      1.359750   -2.338250   -3.430940
  H      1.303000   -0.879480   -2.865760
  O      0.885520   -1.737840    0.052730
  H      1.284090   -0.839590    0.017130
  H      1.032320   -2.090180   -0.841890
  O      1.752130    0.741530   -2.896280
  H      2.036450    0.920500   -1.984040
  H      0.921210    1.242140   -2.984230
  O     -0.923410    1.794470   -2.768350
  H     -1.359750    2.338250   -3.430940
  H     -1.303000    0.879480   -2.865760

 Total Charge           Charge          ....    0
 Multiplicity           Mult            ....    1
 Number of Electrons    NEL             ....   50
 Basis Dimension        Dim             ....  215

ORBITAL ENERGIES
----------------

  NO   OCC          E(Eh)            E(eV)
   0   2.0000     -20.597013      -560.4732
   1   2.0000     -20.581850      -560.0606
   2   2.0000     -20.544134      -559.0343
   3   2.0000     -20.542836      -558.9990
   4   2.0000     -20.526509      -558.5547
   5   2.0000      -1.378241       -37.5039
   6   2.0000      -1.367397       -37.2088
   7   2.0000      -1.327528       -36.1239
   8   2.0000      -1.319538       -35.9065
   9   2.0000      -1.304432       -35.4954
  10   2.0000      -0.744601       -20.2616
  11   2.0000      -0.728728       -19.8297
  12   2.0000      -0.711066       -19.3491
  13   2.0000      -0.687754       -18.7147
  14   2.0000      -0.673837       -18.3360
  15   2.0000      -0.626736       -17.0544
  16   2.0000      -0.601846       -16.3771
  17   2.0000      -0.573377       -15.6024
  18   2.0000      -0.555757       -15.1229
  19   2.0000      -0.547744       -14.9049
  20   2.0000      -0.538074       -14.6417
  21   2.0000      -0.517050       -14.0696
  22   2.0000      -0.490300       -13.3418
  23   2.0000      -0.487268       -13.2592
  24   2.0000      -0.471857       -12.8399
  25   0.0000       0.098013         2.6671
  26   0.0000       0.128209         3.4887
  27   0.0000       0.145418         3.9570
  28   0.0000       0.160091         4.3563
  29   0.0000       0.190795         5.1918

MULLIKEN ATOMIC CHARGES
-----------------------
   0 O :   -0.684583
   1 H :    0.331488
   2 H :    0.351284
   3 O :   -0.738092
   4 H :    0.335546
   5 H :    0.365189
   6 O :   -0.692166
   7 H :    0.305559
   8 H :    0.369593
   9 O :   -0.697005
  10 H :    0.347443
  11 H :    0.379157
  12 O :   -0.702285
  13 H :    0.356374
  14 H :    0.372497
Sum of atomic charges:    0.0000000

LOEWDIN ATOMIC CHARGES
----------------------
   0 O :   -0.340012
   1 H :    0.154504
   2 H :    0.183512
   3 O :   -0.342472
   4 H :    0.152863
   5 H :    0.141673
   6 O :   -0.347633
   7 H :    0.155214
   8 H :    0.149958
   9 O :   -0.279562
  10 H :    0.167374
  11 H :    0.155560
  12 O :   -0.310058
  13 H :    0.165803
  14 H :    0.193276

  Mayer bond orders larger than 0.100000
B(  0-O ,  1-H ) :   0.8570 B(  0-O ,  2-H ) :   0.8389 B(  3-O ,  4-H ) :   0.8512
B(  3-O ,  5-H ) :   0.7613 B(  6-O ,  7-H ) :   0.8677 B(  6-O ,  8-H ) :   0.8103
B(  9-O , 10-H ) :   0.8432 B(  9-O , 11-H ) :   0.7914 B( 12-O , 13-H ) :   0.8393
B( 12-O , 14-H ) :   0.8214

MP2 TOTAL ENERGY:     -381.591724913 Eh
FINAL SINGLE POINT ENERGY      -381.591724913107

DIPOLE MOMENT
-------------
                                X             Y             Z
Electronic contribution:     -0.21400       0.30415      -0.15069
Nuclear contribution   :      0.30796       0.34090      -0.72077
                        -----------------------------------------
Total Dipole Moment    :      0.09396       0.64505      -0.87146
                        -----------------------------------------
Magnitude (a.u.)       :      1.08828
Magnitude (Debye)      :      2.76619

Rotational constants in cm-1:     0.069286     0.028041     0.022065
Rotational constants in MHz :  2077.149170   840.634308   661.497860

                             ****ORCA TERMINATED NORMALLY****
TOTAL RUN TIME: 0 days 0 hours 0 minutes 28 seconds 922 msec
