                         Program Version 4.2.0 -  RELEASE  -
|  1> # 12h2o.su.etal.mol0,2,3,5,8,9,10
|  2> ! MP2 def2-TZVP EnGrad TightSCF
|  3>
|  4> %pal
|  5>     nprocs 6
|  6> end
|  7>
|  8> %maxcore 8000
|  9>
| 10> %scf
| 11>     ConvForced true
| 12> end
| 13>
| 14> *xyz 0 1
| 15> O   1.794470000   0.923410000   2.768350000
| 16> H   2.338250000   1.359750000   3.430940000
| 17> H   0.879480000   1.303000000   2.865760000
| 18> O   0.923410000  -1.794470000  -2.768350000
| 19> H   1.359750000  -2.338250000  -3.430940000
| 20> H   1.303000000  -0.879480000  -2.865760000
| 21> O  -1.752130000  -0.741530000  -2.896280000
| 22> H  -2.036450000  -0.920500000  -1.984040000
| 23> H  -0.921210000  -1.242140000  -2.984230000
| 24> O   0.885520000  -1.737840000   0.052730000
| 25> H   1.284090000  -0.839590000   0.017130000
| 26> H   1.032320000  -2.090180000  -0.841890000
| 27> O   1.752130000   0.741530000  -2.896280000
| 28> H   2.036450000   0.920500000  -1.984040000
| 29> H   0.921210000   1.242140000  -2.984230000
| 30> O   0.741530000  -1.752130000   2.896280000
| 31> H   0.920500000  -2.036450000   1.984040000
| 32> H   1.242140000  -0.921210000   2.984230000
| 33> O  -0.923410000   1.794470000  -2.768350000
| 34> H  -1.359750000   2.338250000  -3.430940000
| 35> H  -1.303000000   0.879480000  -2.865760000
| 36> *
| 37>
| 38>                          ****END OF INPUT****

CARTESIAN COORDINATES (ANGSTROEM)
---------------------------------
  O      1.794470    0.923410    2.768350
  H      2.338250    1.359750    3.430940
  H      0.879480    1.303000    2.865760
  O      0.923410   -1.794470   -2.768350
  H      1.359750   -2.338250   -3.430940
  H      1.303000   -0.879480   -2.865760
  O     -1.752130   -0.741530   -2.896280
  H     -2.036450   -0.920500   -1.984040
  H     -0.921210   -1.242140   -2.984230
  O      0.885520   -1.737840    0.052730
  H      1.284090   -0.839590    0.017130
  H      1.032320   -2.090180   -0.841890
  O      1.752130    0.741530   -2.896280
  H      2.036450    0.920500   -1.984040
  H      0.921210    1.242140   -2.984230
  O      0.741530   -1.752130    2.896280
  H      0.920500   -2.036450    1.984040
  H      1.242140   -0.921210    2.984230
  O     -0.923410    1.794470   -2.768350
  H     -1.359750    2.338250   -3.430940
  H     -1.303000    0.879480   -2.865760

 Total Charge           Charge          ....    0
 Multiplicity           Mult            ....    1
 Number of Electrons    NEL             ....   70
 Basis Dimension        Dim             ....  301

ORBITAL ENERGIES
----------------

  NO   OCC          E(Eh)            E(eV)
   0   2.0000     -20.589594      -560.2713
   1   2.0000     -20.586469      -560.1863
   2   2.0000     -20.578247      -559.9626
   3   2.0000     -20.575454      -559.8866
   4   2.0000     -20.555312      -559.3385
   5   2.0000     -20.555287      -559.3378
   6   2.0000     -20.496514      -557.7385
   7   2.0000      -1.382330       -37.6151
   8   2.0000      -1.367208       -37.2036
   9   2.0000      -1.366733       -37.1907
  10   2.0000      -1.359273       -36.9877
  11   2.0000      -1.336375       -36.3646
  12   2.0000      -1.335114       -36.3303
  13   2.0000      -1.281928       -34.8830
  14   2.0000      -0.745096       -20.2751
  15   2.0000      -0.738203       -20.0875
  16   2.0000      -0.734267       -19.9804
  17   2.0000      -0.724762       -19.7218
  18   2.0000      -0.718146       -19.5417
  19   2.0000      -0.705670       -19.2023
  20   2.0000      -0.659865       -17.9559
  21   2.0000      -0.639225       -17.3942
  22   2.0000      -0.609075       -16.5738
  23   2.0000      -0.605704       -16.4821
  24   2.0000      -0.602028       -16.3820
  25   2.0000      -0.581539       -15.8245
  26   2.0000      -0.567734       -15.4488
  27   2.0000      -0.540204       -14.6997
  28   2.0000      -0.528996       -14.3947
  29   2.0000      -0.524246       -14.2655
  30   2.0000      -0.515815       -14.0360
  31   2.0000      -0.511880       -13.9290
  32   2.0000      -0.505902       -13.7663
  33   2.0000      -0.497486       -13.5373
  34   2.0000      -0.446605       -12.1527
  35   0.0000       0.093025         2.5313
  36   0.0000       0.116890         3.1808
  37   0.0000       0.144134         3.9221
  38   0.0000       0.145926         3.9708
  39   0.0000       0.166060         4.5187

MULLIKEN ATOMIC CHARGES
-----------------------
   0 O :   -0.698350
   1 H :    0.353704
   2 H :    0.362155
   3 O :   -0.757182
   4 H :    0.354653
   5 H :    0.381668
   6 O :   -0.709542
   7 H :    0.361699
   8 H :    0.378440
   9 O :   -0.706669
  10 H :    0.323380
  11 H :    0.372931
  12 O :   -0.704987
  13 H :    0.349750
  14 H :    0.383264
  15 O :   -0.728135
  16 H :    0.367000
  17 H :    0.337652
  18 O :   -0.745224
  19 H :    0.343767
  20 H :    0.380027
Sum of atomic charges:   -0.0000000

LOEWDIN ATOMIC CHARGES
----------------------
   0 O :   -0.313320
   1 H :    0.163814
   2 H :    0.188741
   3 O :   -0.314897
   4 H :    0.161127
   5 H :    0.145388
   6 O :   -0.282356
   7 H :    0.174543
   8 H :    0.153660
   9 O :   -0.324739
  10 H :    0.162506
  11 H :    0.150653
  12 O :   -0.279870
  13 H :    0.167850
  14 H :    0.156463
  15 O :   -0.357907
  16 H :    0.149382
  17 H :    0.138748
  18 O :   -0.341753
  19 H :    0.156875
  20 H :    0.145091

  Mayer bond orders larger than 0.100000
B(  0-O ,  1-H ) :   0.8411 B(  0-O ,  2-H ) :   0.8295 B(  3-O ,  4-H ) :   0.8383
B(  3-O ,  5-H ) :   0.7344 B(  5-H , 12-O ) :   0.1128 B(  6-O ,  7-H ) :   0.8342
B(  6-O ,  8-H ) :   0.7913 B(  6-O , 20-H ) :   0.1094 B(  9-O , 10-H ) :   0.8511
B(  9-O , 11-H ) :   0.8060 B( 12-O , 13-H ) :   0.8420 B( 12-O , 14-H ) :   0.7748
B( 15-O , 16-H ) :   0.8240 B( 15-O , 17-H ) :   0.8358 B( 18-O , 19-H ) :   0.8469
B( 18-O , 20-H ) :   0.7483

MP2 TOTAL ENERGY:     -534.257685094 Eh
FINAL SINGLE POINT ENERGY      -534.257685093549

DIPOLE MOMENT
-------------
                                X             Y             Z
Electronic contribution:     -0.12301      -0.10898      -0.23983
Nuclear contribution   :      0.71062       1.58851      -0.72077
                        -----------------------------------------
Total Dipole Moment    :      0.58761       1.47953      -0.96059
                        -----------------------------------------
Magnitude (a.u.)       :      1.85931
Magnitude (Debye)      :      4.72599

Rotational constants in cm-1:     0.043981     0.016979     0.015514
Rotational constants in MHz :  1318.529101   509.029839   465.109521

                             ****ORCA TERMINATED NORMALLY****
TOTAL RUN TIME: 0 days 0 hours 1 minutes 41 seconds 271 msec
