                         Program Version 3.0.3 - RELEASE   -
|  1> ! wB97X-D3 Def2-TZVP def2-TZVP/J RIJCOSX TightSCF Grid4 COSMO
|  2>
|  3> %pal nprocs 12 end
|  4>
|  5> %scf
|  6>         maxiter 400
|  7> end
|  8>
|  9> %cosmo
| 10>         SMD true
| 11>         solvent "WATER"
| 12> end
| 13>
| 14> * xyz  0  1
| 15> O  1.886588	1.183364	0.226222
| 16> H  1.233332	1.206647	1.022388
| 17> H  2.647150	1.735918	0.493454
| 18> O  0.084505	1.062040	2.101507
| 19> H  -0.693324	1.282427	1.506582
| 20> H  0.039891	0.060459	2.122993
| 21> O  -0.060142	-1.577541	1.601126
| 22> H  0.715960	-1.629618	0.922603
| 23> H  0.057139	-2.345963	2.193466
| 24> O  -1.789741	1.353269	0.192822
| 25> H  -1.986384	0.355778	0.025982
| 26> H  -2.663736	1.780866	0.285098
| 27> O  1.837395	-1.476059	-0.170970
| 28> H  2.057380	-0.511936	-0.002220
| 29> H  1.231853	-1.401188	-0.968460
| 30> O  0.087052	1.627434	-1.724938
| 31> H  0.853366	1.609100	-1.077504
| 32> H  -0.698363	1.679069	-1.105506
| 33> O  -0.045654	-0.955952	-2.019984
| 34> H  0.028139	0.072618	-2.010101
| 35> H  -0.034427	-1.211054	-2.963491
| 36> O  -2.023533	-1.210322	-0.204328
| 37> H  -1.404735	-1.231062	-0.992298
| 38> H  -1.404866	-1.472591	0.541001
| 39> **                         ****END OF INPUT****

CARTESIAN COORDINATES (ANGSTROEM)
---------------------------------
  O      1.886588    1.183364    0.226222
  H      1.233332    1.206647    1.022388
  H      2.647150    1.735918    0.493454
  O      0.084505    1.062040    2.101507
  H     -0.693324    1.282427    1.506582
  H      0.039891    0.060459    2.122993
  O     -0.060142   -1.577541    1.601126
  H      0.715960   -1.629618    0.922603
  H      0.057139   -2.345963    2.193466
  O     -1.789741    1.353269    0.192822
  H     -1.986384    0.355778    0.025982
  H     -2.663736    1.780866    0.285098
  O      1.837395   -1.476059   -0.170970
  H      2.057380   -0.511936   -0.002220
  H      1.231853   -1.401188   -0.968460
  O      0.087052    1.627434   -1.724938
  H      0.853366    1.609100   -1.077504
  H     -0.698363    1.679069   -1.105506
  O     -0.045654   -0.955952   -2.019984
  H      0.028139    0.072618   -2.010101
  H     -0.034427   -1.211054   -2.963491
  O     -2.023533   -1.210322   -0.204328
  H     -1.404735   -1.231062   -0.992298
  H     -1.404866   -1.472591    0.541001

 Total Charge           Charge          ....    0
 Multiplicity           Mult            ....    1
 Number of Electrons    NEL             ....   80
 Basis Dimension        Dim             ....  344

ORBITAL ENERGIES
----------------

  NO   OCC          E(Eh)            E(eV)
   0   2.0000     -19.237888      -523.4896
   1   2.0000     -19.237740      -523.4855
   2   2.0000     -19.237723      -523.4851
   3   2.0000     -19.237235      -523.4718
   4   2.0000     -19.227293      -523.2012
   5   2.0000     -19.226865      -523.1896
   6   2.0000     -19.226826      -523.1885
   7   2.0000     -19.226556      -523.1812
   8   2.0000      -1.146060       -31.1859
   9   2.0000      -1.128887       -30.7186
  10   2.0000      -1.126543       -30.6548
  11   2.0000      -1.126354       -30.6496
  12   2.0000      -1.107196       -30.1283
  13   2.0000      -1.106875       -30.1196
  14   2.0000      -1.104636       -30.0587
  15   2.0000      -1.088311       -29.6145
  16   2.0000      -0.638218       -17.3668
  17   2.0000      -0.636671       -17.3247
  18   2.0000      -0.633658       -17.2427
  19   2.0000      -0.633370       -17.2349
  20   2.0000      -0.622279       -16.9331
  21   2.0000      -0.621077       -16.9004
  22   2.0000      -0.614774       -16.7289
  23   2.0000      -0.614233       -16.7141
  24   2.0000      -0.566697       -15.4206
  25   2.0000      -0.527104       -14.3432
  26   2.0000      -0.526876       -14.3370
  27   2.0000      -0.524417       -14.2701
  28   2.0000      -0.493340       -13.4245
  29   2.0000      -0.490285       -13.3413
  30   2.0000      -0.490008       -13.3338
  31   2.0000      -0.455663       -12.3992
  32   2.0000      -0.422104       -11.4860
  33   2.0000      -0.421842       -11.4789
  34   2.0000      -0.421164       -11.4604
  35   2.0000      -0.420771       -11.4498
  36   2.0000      -0.414490       -11.2788
  37   2.0000      -0.414266       -11.2727
  38   2.0000      -0.411803       -11.2057
  39   2.0000      -0.409795       -11.1511
  40   0.0000       0.101092         2.7508
  41   0.0000       0.148729         4.0471
  42   0.0000       0.149102         4.0573
  43   0.0000       0.149245         4.0612
  44   0.0000       0.217879         5.9288

MULLIKEN ATOMIC CHARGES
-----------------------
   0 O :   -0.785942
   1 H :    0.377447
   2 H :    0.407091
   3 O :   -0.762503
   4 H :    0.382364
   5 H :    0.382001
   6 O :   -0.787925
   7 H :    0.375191
   8 H :    0.407053
   9 O :   -0.786358
  10 H :    0.377060
  11 H :    0.407244
  12 O :   -0.759623
  13 H :    0.380275
  14 H :    0.382998
  15 O :   -0.760709
  16 H :    0.383806
  17 H :    0.381030
  18 O :   -0.786828
  19 H :    0.376774
  20 H :    0.407304
  21 O :   -0.761061
  22 H :    0.380694
  23 H :    0.382616
Sum of atomic charges:    0.0000000

LOEWDIN ATOMIC CHARGES
----------------------
   0 O :   -0.300366
   1 H :    0.148988
   2 H :    0.189281
   3 O :   -0.332466
   4 H :    0.147022
   5 H :    0.147958
   6 O :   -0.303320
   7 H :    0.148078
   8 H :    0.188779
   9 O :   -0.301474
  10 H :    0.149101
  11 H :    0.189348
  12 O :   -0.330908
  13 H :    0.147495
  14 H :    0.147583
  15 O :   -0.330408
  16 H :    0.147962
  17 H :    0.147515
  18 O :   -0.301755
  19 H :    0.149406
  20 H :    0.189265
  21 O :   -0.331739
  22 H :    0.147438
  23 H :    0.147218

  Mayer bond orders larger than 0.1
B(  0-O ,  1-H ) :   0.7276 B(  0-O ,  2-H ) :   0.8376 B(  0-O , 13-H ) :   0.1122
B(  0-O , 16-H ) :   0.1108 B(  1-H ,  3-O ) :   0.1786 B(  3-O ,  4-H ) :   0.7910
B(  3-O ,  5-H ) :   0.7927 B(  4-H ,  9-O ) :   0.1125 B(  5-H ,  6-O ) :   0.1093
B(  6-O ,  7-H ) :   0.7244 B(  6-O ,  8-H ) :   0.8377 B(  6-O , 23-H ) :   0.1123
B(  7-H , 12-O ) :   0.1846 B(  9-O , 10-H ) :   0.7276 B(  9-O , 11-H ) :   0.8375
B(  9-O , 17-H ) :   0.1092 B( 10-H , 21-O ) :   0.1789 B( 12-O , 13-H ) :   0.7922
B( 12-O , 14-H ) :   0.7908 B( 14-H , 18-O ) :   0.1124 B( 15-O , 16-H ) :   0.7911
B( 15-O , 17-H ) :   0.7940 B( 15-O , 19-H ) :   0.1800 B( 18-O , 19-H ) :   0.7272
B( 18-O , 20-H ) :   0.8375 B( 18-O , 22-H ) :   0.1085 B( 21-O , 22-H ) :   0.7945
B( 21-O , 23-H ) :   0.7912

Dispersion correction           -0.012611166
FINAL SINGLE POINT ENERGY      -611.666529050480

DIPOLE MOMENT
-------------
                                X             Y             Z
Electronic contribution:      0.00526       0.00869      -0.00711
Nuclear contribution   :      0.02117      -0.02746      -0.00743
                        -----------------------------------------
Total Dipole Moment    :      0.02643      -0.01877      -0.01454
                        -----------------------------------------
Magnitude (a.u.)       :      0.03553
Magnitude (Debye)      :      0.09032

                             ****ORCA TERMINATED NORMALLY****
TOTAL RUN TIME: 0 days 0 hours 1 minutes 9 seconds 64 msec
