                         Program Version 3.0.3 - RELEASE   -
|  1> ! wB97X-D3 MA-Def2-TZVP def2-TZVP/J RIJCOSX TightSCF Grid4
|  2>
|  3> %pal nprocs 1 end
|  4>
|  5> %scf
|  6>         maxiter 400
|  7> end
|  8>
|  9> * xyz  0  1
| 10> O  1.994004	1.309692	0.217771
| 11> H  1.325875	1.253611	0.979942
| 12> H  2.727352	1.848064	0.543088
| 13> O  0.160451	1.016273	2.027547
| 14> H  -0.644112	1.259577	1.516331
| 15> H  0.064707	0.047374	2.158365
| 16> O  -0.109598	-1.694088	1.717073
| 17> H  0.633250	-1.668712	1.027379
| 18> H  0.061199	-2.467328	2.270145
| 19> O  -1.842613	1.356523	0.195221
| 20> H  -2.012367	0.370086	0.028730
| 21> H  -2.709681	1.773483	0.281917
| 22> O  1.740195	-1.422890	-0.101059
| 23> H  2.054318	-0.497307	0.004170
| 24> H  1.217905	-1.392734	-0.934671
| 25> O  0.094399	1.593497	-1.745095
| 26> H  0.871049	1.676400	-1.146996
| 27> H  -0.670889	1.715381	-1.140076
| 28> O  -0.060239	-0.951947	-2.126605
| 29> H  0.018632	0.058098	-2.057860
| 30> H  -0.041910	-1.163252	-3.069076
| 31> O  -2.018331	-1.207117	-0.202890
| 32> H  -1.432459	-1.289710	-0.988344
| 33> H  -1.466289	-1.537273	0.540437
| 34> **                         ****END OF INPUT****

CARTESIAN COORDINATES (ANGSTROEM)
---------------------------------
  O      1.994004    1.309692    0.217771
  H      1.325875    1.253611    0.979942
  H      2.727352    1.848064    0.543088
  O      0.160451    1.016273    2.027547
  H     -0.644112    1.259577    1.516331
  H      0.064707    0.047374    2.158365
  O     -0.109598   -1.694088    1.717073
  H      0.633250   -1.668712    1.027379
  H      0.061199   -2.467328    2.270145
  O     -1.842613    1.356523    0.195221
  H     -2.012367    0.370086    0.028730
  H     -2.709681    1.773483    0.281917
  O      1.740195   -1.422890   -0.101059
  H      2.054318   -0.497307    0.004170
  H      1.217905   -1.392734   -0.934671
  O      0.094399    1.593497   -1.745095
  H      0.871049    1.676400   -1.146996
  H     -0.670889    1.715381   -1.140076
  O     -0.060239   -0.951947   -2.126605
  H      0.018632    0.058098   -2.057860
  H     -0.041910   -1.163252   -3.069076
  O     -2.018331   -1.207117   -0.202890
  H     -1.432459   -1.289710   -0.988344
  H     -1.466289   -1.537273    0.540437

 Total Charge           Charge          ....    0
 Multiplicity           Mult            ....    1
 Number of Electrons    NEL             ....   80
 Basis Dimension        Dim             ....  376

ORBITAL ENERGIES
----------------

  NO   OCC          E(Eh)            E(eV)
   0   2.0000     -19.248339      -523.7739
   1   2.0000     -19.247648      -523.7551
   2   2.0000     -19.246073      -523.7123
   3   2.0000     -19.245024      -523.6837
   4   2.0000     -19.228988      -523.2474
   5   2.0000     -19.228556      -523.2356
   6   2.0000     -19.227785      -523.2146
   7   2.0000     -19.227567      -523.2087
   8   2.0000      -1.153607       -31.3912
   9   2.0000      -1.140510       -31.0348
  10   2.0000      -1.138250       -30.9733
  11   2.0000      -1.137370       -30.9494
  12   2.0000      -1.116934       -30.3933
  13   2.0000      -1.115908       -30.3654
  14   2.0000      -1.114001       -30.3135
  15   2.0000      -1.102030       -29.9878
  16   2.0000      -0.656261       -17.8578
  17   2.0000      -0.654512       -17.8102
  18   2.0000      -0.651536       -17.7292
  19   2.0000      -0.649808       -17.6822
  20   2.0000      -0.630899       -17.1676
  21   2.0000      -0.629287       -17.1238
  22   2.0000      -0.625867       -17.0307
  23   2.0000      -0.620562       -16.8864
  24   2.0000      -0.566123       -15.4050
  25   2.0000      -0.527286       -14.3482
  26   2.0000      -0.526521       -14.3274
  27   2.0000      -0.522507       -14.2182
  28   2.0000      -0.494816       -13.4646
  29   2.0000      -0.494203       -13.4479
  30   2.0000      -0.492302       -13.3962
  31   2.0000      -0.456922       -12.4335
  32   2.0000      -0.432208       -11.7610
  33   2.0000      -0.431537       -11.7427
  34   2.0000      -0.430211       -11.7066
  35   2.0000      -0.428777       -11.6676
  36   2.0000      -0.418284       -11.3821
  37   2.0000      -0.413824       -11.2607
  38   2.0000      -0.413128       -11.2418
  39   2.0000      -0.412615       -11.2278
  40   0.0000       0.056867         1.5474
  41   0.0000       0.080066         2.1787
  42   0.0000       0.081359         2.2139
  43   0.0000       0.081898         2.2285
  44   0.0000       0.122170         3.3244

MULLIKEN ATOMIC CHARGES
-----------------------
   0 O :   -0.823795
   1 H :    0.413892
   2 H :    0.356624
   3 O :   -0.757631
   4 H :    0.398871
   5 H :    0.408487
   6 O :   -0.813283
   7 H :    0.408530
   8 H :    0.357757
   9 O :   -0.841745
  10 H :    0.407725
  11 H :    0.357948
  12 O :   -0.754177
  13 H :    0.401769
  14 H :    0.401145
  15 O :   -0.725522
  16 H :    0.407885
  17 H :    0.400831
  18 O :   -0.849162
  19 H :    0.409051
  20 H :    0.358235
  21 O :   -0.736062
  22 H :    0.407540
  23 H :    0.405087
Sum of atomic charges:   -0.0000000

LOEWDIN ATOMIC CHARGES
----------------------
   0 O :   -0.403433
   1 H :    0.187192
   2 H :    0.189710
   3 O :   -0.362766
   4 H :    0.191618
   5 H :    0.193201
   6 O :   -0.400207
   7 H :    0.188789
   8 H :    0.190216
   9 O :   -0.398640
  10 H :    0.188917
  11 H :    0.190164
  12 O :   -0.365895
  13 H :    0.193670
  14 H :    0.193010
  15 O :   -0.356496
  16 H :    0.194350
  17 H :    0.193021
  18 O :   -0.403785
  19 H :    0.183960
  20 H :    0.189784
  21 O :   -0.361580
  22 H :    0.193368
  23 H :    0.191832

  Mayer bond orders larger than 0.1
B(  0-O ,  1-H ) :   0.7496 B(  0-O ,  2-H ) :   0.8771 B(  1-H ,  3-O ) :   0.1179
B(  3-O ,  4-H ) :   0.8465 B(  3-O ,  5-H ) :   0.8445 B(  6-O ,  7-H ) :   0.7523
B(  6-O ,  8-H ) :   0.8768 B(  7-H , 12-O ) :   0.1211 B(  9-O , 10-H ) :   0.7478
B(  9-O , 11-H ) :   0.8751 B( 10-H , 21-O ) :   0.1300 B( 12-O , 13-H ) :   0.8478
B( 12-O , 14-H ) :   0.8456 B( 15-O , 16-H ) :   0.8459 B( 15-O , 17-H ) :   0.8515
B( 15-O , 19-H ) :   0.1323 B( 18-O , 19-H ) :   0.7424 B( 18-O , 20-H ) :   0.8748
B( 21-O , 22-H ) :   0.8509 B( 21-O , 23-H ) :   0.8476

Dispersion correction           -0.012261650
FINAL SINGLE POINT ENERGY      -611.650329573707

DIPOLE MOMENT
-------------
                                X             Y             Z
Electronic contribution:     -0.02906       0.01812      -0.00052
Nuclear contribution   :      0.06663      -0.01176       0.04125
                        -----------------------------------------
Total Dipole Moment    :      0.03756       0.00636       0.04073
                        -----------------------------------------
Magnitude (a.u.)       :      0.05577
Magnitude (Debye)      :      0.14176

                             ****ORCA TERMINATED NORMALLY****
TOTAL RUN TIME: 0 days 0 hours 6 minutes 30 seconds 116 msec
