                         Program Version 3.0.3 - RELEASE   -
|  1> ! B3LYP Def2-TZVP def2-TZVP/J RIJCOSX TightSCF Grid4 D3BJ COSMO
|  2>
|  3> %pal nprocs 12 end
|  4>
|  5> %scf
|  6>         maxiter 400
|  7> end
|  8>
|  9> %cosmo
| 10>         SMD true
| 11>         solvent "WATER"
| 12> end
| 13>
| 14> * xyz  0  1
| 15> O  1.886588	1.183364	0.226222
| 16> H  1.233332	1.206647	1.022388
| 17> H  2.647150	1.735918	0.493454
| 18> O  0.084505	1.062040	2.101507
| 19> H  -0.693324	1.282427	1.506582
| 20> H  0.039891	0.060459	2.122993
| 21> O  -0.060142	-1.577541	1.601126
| 22> H  0.715960	-1.629618	0.922603
| 23> H  0.057139	-2.345963	2.193466
| 24> O  -1.789741	1.353269	0.192822
| 25> H  -1.986384	0.355778	0.025982
| 26> H  -2.663736	1.780866	0.285098
| 27> O  1.837395	-1.476059	-0.170970
| 28> H  2.057380	-0.511936	-0.002220
| 29> H  1.231853	-1.401188	-0.968460
| 30> O  0.087052	1.627434	-1.724938
| 31> H  0.853366	1.609100	-1.077504
| 32> H  -0.698363	1.679069	-1.105506
| 33> O  -0.045654	-0.955952	-2.019984
| 34> H  0.028139	0.072618	-2.010101
| 35> H  -0.034427	-1.211054	-2.963491
| 36> O  -2.023533	-1.210322	-0.204328
| 37> H  -1.404735	-1.231062	-0.992298
| 38> H  -1.404866	-1.472591	0.541001
| 39> **                         ****END OF INPUT****

CARTESIAN COORDINATES (ANGSTROEM)
---------------------------------
  O      1.886588    1.183364    0.226222
  H      1.233332    1.206647    1.022388
  H      2.647150    1.735918    0.493454
  O      0.084505    1.062040    2.101507
  H     -0.693324    1.282427    1.506582
  H      0.039891    0.060459    2.122993
  O     -0.060142   -1.577541    1.601126
  H      0.715960   -1.629618    0.922603
  H      0.057139   -2.345963    2.193466
  O     -1.789741    1.353269    0.192822
  H     -1.986384    0.355778    0.025982
  H     -2.663736    1.780866    0.285098
  O      1.837395   -1.476059   -0.170970
  H      2.057380   -0.511936   -0.002220
  H      1.231853   -1.401188   -0.968460
  O      0.087052    1.627434   -1.724938
  H      0.853366    1.609100   -1.077504
  H     -0.698363    1.679069   -1.105506
  O     -0.045654   -0.955952   -2.019984
  H      0.028139    0.072618   -2.010101
  H     -0.034427   -1.211054   -2.963491
  O     -2.023533   -1.210322   -0.204328
  H     -1.404735   -1.231062   -0.992298
  H     -1.404866   -1.472591    0.541001

 Total Charge           Charge          ....    0
 Multiplicity           Mult            ....    1
 Number of Electrons    NEL             ....   80
 Basis Dimension        Dim             ....  344

ORBITAL ENERGIES
----------------

  NO   OCC          E(Eh)            E(eV)
   0   2.0000     -19.129561      -520.5418
   1   2.0000     -19.129451      -520.5388
   2   2.0000     -19.129430      -520.5383
   3   2.0000     -19.128926      -520.5245
   4   2.0000     -19.118263      -520.2344
   5   2.0000     -19.117826      -520.2225
   6   2.0000     -19.117821      -520.2224
   7   2.0000     -19.117518      -520.2141
   8   2.0000      -1.028611       -27.9899
   9   2.0000      -1.012123       -27.5413
  10   2.0000      -1.009831       -27.4789
  11   2.0000      -1.009648       -27.4739
  12   2.0000      -0.990787       -26.9607
  13   2.0000      -0.990464       -26.9519
  14   2.0000      -0.988274       -26.8923
  15   2.0000      -0.972403       -26.4604
  16   2.0000      -0.533775       -14.5248
  17   2.0000      -0.531712       -14.4686
  18   2.0000      -0.529596       -14.4110
  19   2.0000      -0.529334       -14.4039
  20   2.0000      -0.516857       -14.0644
  21   2.0000      -0.515561       -14.0291
  22   2.0000      -0.510296       -13.8858
  23   2.0000      -0.509732       -13.8705
  24   2.0000      -0.460220       -12.5232
  25   2.0000      -0.422803       -11.5051
  26   2.0000      -0.422569       -11.4987
  27   2.0000      -0.420861       -11.4522
  28   2.0000      -0.391604       -10.6561
  29   2.0000      -0.389328       -10.5942
  30   2.0000      -0.389065       -10.5870
  31   2.0000      -0.355916        -9.6850
  32   2.0000      -0.322897        -8.7865
  33   2.0000      -0.322647        -8.7797
  34   2.0000      -0.321864        -8.7584
  35   2.0000      -0.321570        -8.7504
  36   2.0000      -0.315360        -8.5814
  37   2.0000      -0.315146        -8.5756
  38   2.0000      -0.313019        -8.5177
  39   2.0000      -0.311145        -8.4667
  40   0.0000       0.019082         0.5192
  41   0.0000       0.060581         1.6485
  42   0.0000       0.061013         1.6602
  43   0.0000       0.061160         1.6643
  44   0.0000       0.130757         3.5581

MULLIKEN ATOMIC CHARGES
-----------------------
   0 O :   -0.755545
   1 H :    0.373759
   2 H :    0.385365
   3 O :   -0.751212
   4 H :    0.374736
   5 H :    0.373651
   6 O :   -0.757888
   7 H :    0.371820
   8 H :    0.385266
   9 O :   -0.756004
  10 H :    0.372834
  11 H :    0.385547
  12 O :   -0.748623
  13 H :    0.371976
  14 H :    0.375116
  15 O :   -0.749484
  16 H :    0.375931
  17 H :    0.373019
  18 O :   -0.756199
  19 H :    0.372667
  20 H :    0.385560
  21 O :   -0.749584
  22 H :    0.372538
  23 H :    0.374751
Sum of atomic charges:    0.0000000

LOEWDIN ATOMIC CHARGES
----------------------
   0 O :   -0.294836
   1 H :    0.147912
   2 H :    0.185869
   3 O :   -0.330615
   4 H :    0.145644
   5 H :    0.146529
   6 O :   -0.297855
   7 H :    0.146987
   8 H :    0.185351
   9 O :   -0.296034
  10 H :    0.147954
  11 H :    0.185952
  12 O :   -0.329097
  13 H :    0.146010
  14 H :    0.146173
  15 O :   -0.328535
  16 H :    0.146599
  17 H :    0.146138
  18 O :   -0.296246
  19 H :    0.148245
  20 H :    0.185846
  21 O :   -0.329868
  22 H :    0.146053
  23 H :    0.145825

  Mayer bond orders larger than 0.1
B(  0-O ,  1-H ) :   0.7225 B(  0-O ,  2-H ) :   0.8504 B(  0-O , 13-H ) :   0.1220
B(  0-O , 16-H ) :   0.1200 B(  1-H ,  3-O ) :   0.1864 B(  3-O ,  4-H ) :   0.7909
B(  3-O ,  5-H ) :   0.7932 B(  4-H ,  9-O ) :   0.1218 B(  5-H ,  6-O ) :   0.1182
B(  6-O ,  7-H ) :   0.7192 B(  6-O ,  8-H ) :   0.8505 B(  6-O , 23-H ) :   0.1216
B(  7-H , 12-O ) :   0.1922 B(  9-O , 10-H ) :   0.7227 B(  9-O , 11-H ) :   0.8503
B(  9-O , 17-H ) :   0.1183 B( 10-H , 21-O ) :   0.1871 B( 12-O , 13-H ) :   0.7921
B( 12-O , 14-H ) :   0.7907 B( 14-H , 18-O ) :   0.1220 B( 15-O , 16-H ) :   0.7913
B( 15-O , 17-H ) :   0.7942 B( 15-O , 19-H ) :   0.1880 B( 18-O , 19-H ) :   0.7222
B( 18-O , 20-H ) :   0.8504 B( 18-O , 22-H ) :   0.1178 B( 21-O , 22-H ) :   0.7948
B( 21-O , 23-H ) :   0.7913

Dispersion correction           -0.026061205
FINAL SINGLE POINT ENERGY      -611.575802570324

DIPOLE MOMENT
-------------
                                X             Y             Z
Electronic contribution:      0.00460       0.00979      -0.00705
Nuclear contribution   :      0.02117      -0.02746      -0.00743
                        -----------------------------------------
Total Dipole Moment    :      0.02577      -0.01767      -0.01448
                        -----------------------------------------
Magnitude (a.u.)       :      0.03444
Magnitude (Debye)      :      0.08754

                             ****ORCA TERMINATED NORMALLY****
TOTAL RUN TIME: 0 days 0 hours 1 minutes 56 seconds 221 msec
