                         Program Version 3.0.3 - RELEASE   -
|  1> ! wB97X-D3 MA-Def2-TZVP def2-TZVP/J RIJCOSX TightSCF Grid4
|  2>
|  3> %pal nprocs 1 end
|  4>
|  5> %scf
|  6>         maxiter 400
|  7> end
|  8>
|  9> %cosmo
| 10>         SMD true
| 11>         solvent "WATER"
| 12> end
| 13>
| 14> * xyz  0  1
| 15> O  1.970982	1.286056	0.173865
| 16> H  1.333981	1.249410	0.948630
| 17> H  2.733250	1.796443	0.487088
| 18> O  0.130954	1.001208	2.046694
| 19> H  -0.639298	1.221625	1.470121
| 20> H  0.064447	0.022949	2.141845
| 21> O  -0.121162	-1.685626	1.732854
| 22> H  0.627683	-1.695710	1.065339
| 23> H  0.020209	-2.457834	2.301169
| 24> O  -1.805280	1.327487	0.156449
| 25> H  -2.023364	0.361576	0.013990
| 26> H  -2.652839	1.773107	0.305919
| 27> O  1.776930	-1.435583	-0.111400
| 28> H  2.044087	-0.496387	0.025353
| 29> H  1.191856	-1.373151	-0.904213
| 30> O  0.091525	1.738861	-1.774690
| 31> H  0.857473	1.730474	-1.152854
| 32> H  -0.679263	1.759909	-1.160083
| 33> O  -0.065444	-0.894352	-2.061865
| 34> H  0.016065	0.104048	-2.065780
| 35> H  -0.015438	-1.167871	-2.990423
| 36> O  -2.033623	-1.314236	-0.209789
| 37> H  -1.420828	-1.293342	-0.982121
| 38> H  -1.448055	-1.573361	0.539345
| 39> **                         ****END OF INPUT****

CARTESIAN COORDINATES (ANGSTROEM)
---------------------------------
  O      1.970982    1.286056    0.173865
  H      1.333981    1.249410    0.948630
  H      2.733250    1.796443    0.487088
  O      0.130954    1.001208    2.046694
  H     -0.639298    1.221625    1.470121
  H      0.064447    0.022949    2.141845
  O     -0.121162   -1.685626    1.732854
  H      0.627683   -1.695710    1.065339
  H      0.020209   -2.457834    2.301169
  O     -1.805280    1.327487    0.156449
  H     -2.023364    0.361576    0.013990
  H     -2.652839    1.773107    0.305919
  O      1.776930   -1.435583   -0.111400
  H      2.044087   -0.496387    0.025353
  H      1.191856   -1.373151   -0.904213
  O      0.091525    1.738861   -1.774690
  H      0.857473    1.730474   -1.152854
  H     -0.679263    1.759909   -1.160083
  O     -0.065444   -0.894352   -2.061865
  H      0.016065    0.104048   -2.065780
  H     -0.015438   -1.167871   -2.990423
  O     -2.033623   -1.314236   -0.209789
  H     -1.420828   -1.293342   -0.982121
  H     -1.448055   -1.573361    0.539345

 Total Charge           Charge          ....    0
 Multiplicity           Mult            ....    1
 Number of Electrons    NEL             ....   80
 Basis Dimension        Dim             ....  376

ORBITAL ENERGIES
----------------

  NO   OCC          E(Eh)            E(eV)
   0   2.0000     -19.241304      -523.5825
   1   2.0000     -19.239721      -523.5394
   2   2.0000     -19.239661      -523.5378
   3   2.0000     -19.238145      -523.4965
   4   2.0000     -19.229369      -523.2577
   5   2.0000     -19.228739      -523.2406
   6   2.0000     -19.228317      -523.2291
   7   2.0000     -19.227759      -523.2139
   8   2.0000      -1.148436       -31.2505
   9   2.0000      -1.133932       -30.8559
  10   2.0000      -1.132295       -30.8113
  11   2.0000      -1.131098       -30.7787
  12   2.0000      -1.114903       -30.3381
  13   2.0000      -1.114104       -30.3163
  14   2.0000      -1.112349       -30.2686
  15   2.0000      -1.098922       -29.9032
  16   2.0000      -0.645730       -17.5712
  17   2.0000      -0.643381       -17.5073
  18   2.0000      -0.641052       -17.4439
  19   2.0000      -0.636996       -17.3336
  20   2.0000      -0.628262       -17.0959
  21   2.0000      -0.625820       -17.0294
  22   2.0000      -0.624852       -17.0031
  23   2.0000      -0.616482       -16.7753
  24   2.0000      -0.561158       -15.2699
  25   2.0000      -0.528824       -14.3900
  26   2.0000      -0.524223       -14.2648
  27   2.0000      -0.520316       -14.1585
  28   2.0000      -0.494708       -13.4617
  29   2.0000      -0.492974       -13.4145
  30   2.0000      -0.491125       -13.3642
  31   2.0000      -0.460799       -12.5390
  32   2.0000      -0.426743       -11.6123
  33   2.0000      -0.425974       -11.5913
  34   2.0000      -0.425701       -11.5839
  35   2.0000      -0.424176       -11.5424
  36   2.0000      -0.417801       -11.3689
  37   2.0000      -0.417678       -11.3656
  38   2.0000      -0.416997       -11.3471
  39   2.0000      -0.415554       -11.3078
  40   0.0000       0.066580         1.8117
  41   0.0000       0.095645         2.6026
  42   0.0000       0.096852         2.6355
  43   0.0000       0.097283         2.6472
  44   0.0000       0.122998         3.3470

MULLIKEN ATOMIC CHARGES
-----------------------
   0 O :   -0.841609
   1 H :    0.420925
   2 H :    0.412300
   3 O :   -0.832357
   4 H :    0.411204
   5 H :    0.423955
   6 O :   -0.839166
   7 H :    0.421006
   8 H :    0.414198
   9 O :   -0.856852
  10 H :    0.413679
  11 H :    0.415356
  12 O :   -0.825555
  13 H :    0.411629
  14 H :    0.414847
  15 O :   -0.794418
  16 H :    0.421047
  17 H :    0.417984
  18 O :   -0.871188
  19 H :    0.415686
  20 H :    0.415397
  21 O :   -0.807150
  22 H :    0.419247
  23 H :    0.419836
Sum of atomic charges:   -0.0000000

LOEWDIN ATOMIC CHARGES
----------------------
   0 O :   -0.390307
   1 H :    0.191203
   2 H :    0.213279
   3 O :   -0.406798
   4 H :    0.192036
   5 H :    0.193003
   6 O :   -0.387959
   7 H :    0.193337
   8 H :    0.213834
   9 O :   -0.378582
  10 H :    0.195535
  11 H :    0.215040
  12 O :   -0.409698
  13 H :    0.194071
  14 H :    0.193951
  15 O :   -0.408296
  16 H :    0.195353
  17 H :    0.194623
  18 O :   -0.383634
  19 H :    0.192157
  20 H :    0.214448
  21 O :   -0.412955
  22 H :    0.193419
  23 H :    0.192942

  Mayer bond orders larger than 0.1
B(  0-O ,  1-H ) :   0.7731 B(  0-O ,  2-H ) :   0.8367 B(  3-O ,  4-H ) :   0.8172
B(  3-O ,  5-H ) :   0.8131 B(  6-O ,  7-H ) :   0.7757 B(  6-O ,  8-H ) :   0.8349
B(  9-O , 10-H ) :   0.7783 B(  9-O , 11-H ) :   0.8342 B( 12-O , 13-H ) :   0.8185
B( 12-O , 14-H ) :   0.8182 B( 15-O , 16-H ) :   0.8215 B( 15-O , 17-H ) :   0.8233
B( 18-O , 19-H ) :   0.7695 B( 18-O , 20-H ) :   0.8337 B( 21-O , 22-H ) :   0.8221
B( 21-O , 23-H ) :   0.8195

Dispersion correction           -0.012227755
FINAL SINGLE POINT ENERGY      -611.680548577643

DIPOLE MOMENT
-------------
                                X             Y             Z
Electronic contribution:     -0.02388       0.01668      -0.00595
Nuclear contribution   :      0.10005      -0.07137       0.11577
                        -----------------------------------------
Total Dipole Moment    :      0.07617      -0.05469       0.10982
                        -----------------------------------------
Magnitude (a.u.)       :      0.14441
Magnitude (Debye)      :      0.36706

                             ****ORCA TERMINATED NORMALLY****
TOTAL RUN TIME: 0 days 0 hours 6 minutes 1 seconds 115 msec
