                         Program Version 3.0.3 - RELEASE   -
|  1> ! wB97X-D3 Def2-TZVP def2-TZVP/J RIJCOSX TightSCF Grid4
|  2>
|  3> %pal nprocs 12 end
|  4>
|  5> %scf
|  6>         maxiter 400
|  7> end
|  8>
|  9> * xyz  0  1
| 10> O  1.902866	1.200084	0.240898
| 11> H  1.215448	1.201519	1.035136
| 12> H  2.647137	1.759696	0.528025
| 13> O  0.121947	1.061345	2.057339
| 14> H  -0.682350	1.295585	1.510075
| 15> H  0.049043	0.066190	2.123530
| 16> O  -0.057746	-1.596518	1.612843
| 17> H  0.723346	-1.623343	0.909848
| 18> H  0.089266	-2.357404	2.203606
| 19> O  -1.809803	1.360646	0.196401
| 20> H  -1.979957	0.337894	0.025143
| 21> H  -2.690587	1.768576	0.282165
| 22> O  1.789056	-1.476976	-0.138103
| 23> H  2.058491	-0.523230	-0.004776
| 24> H  1.226706	-1.420114	-0.963946
| 25> O  0.087734	1.561498	-1.725621
| 26> H  0.859467	1.600898	-1.089888
| 27> H  -0.694439	1.679118	-1.115058
| 28> O  -0.045857	-0.962390	-2.050021
| 29> H  0.027418	0.085242	-2.001484
| 30> H  -0.041045	-1.190209	-2.997509
| 31> O  -2.010350	-1.148158	-0.196385
| 32> H  -1.411673	-1.229626	-0.992641
| 33> H  -1.419271	-1.464618	0.545869
| 34> **                         ****END OF INPUT****

CARTESIAN COORDINATES (ANGSTROEM)
---------------------------------
  O      1.902866    1.200084    0.240898
  H      1.215448    1.201519    1.035136
  H      2.647137    1.759696    0.528025
  O      0.121947    1.061345    2.057339
  H     -0.682350    1.295585    1.510075
  H      0.049043    0.066190    2.123530
  O     -0.057746   -1.596518    1.612843
  H      0.723346   -1.623343    0.909848
  H      0.089266   -2.357404    2.203606
  O     -1.809803    1.360646    0.196401
  H     -1.979957    0.337894    0.025143
  H     -2.690587    1.768576    0.282165
  O      1.789056   -1.476976   -0.138103
  H      2.058491   -0.523230   -0.004776
  H      1.226706   -1.420114   -0.963946
  O      0.087734    1.561498   -1.725621
  H      0.859467    1.600898   -1.089888
  H     -0.694439    1.679118   -1.115058
  O     -0.045857   -0.962390   -2.050021
  H      0.027418    0.085242   -2.001484
  H     -0.041045   -1.190209   -2.997509
  O     -2.010350   -1.148158   -0.196385
  H     -1.411673   -1.229626   -0.992641
  H     -1.419271   -1.464618    0.545869

 Total Charge           Charge          ....    0
 Multiplicity           Mult            ....    1
 Number of Electrons    NEL             ....   80
 Basis Dimension        Dim             ....  344

ORBITAL ENERGIES
----------------

  NO   OCC          E(Eh)            E(eV)
   0   2.0000     -19.243722      -523.6483
   1   2.0000     -19.243556      -523.6438
   2   2.0000     -19.243452      -523.6410
   3   2.0000     -19.243356      -523.6383
   4   2.0000     -19.228307      -523.2288
   5   2.0000     -19.227944      -523.2190
   6   2.0000     -19.227802      -523.2151
   7   2.0000     -19.227169      -523.1979
   8   2.0000      -1.150828       -31.3156
   9   2.0000      -1.134514       -30.8717
  10   2.0000      -1.131432       -30.7878
  11   2.0000      -1.131224       -30.7822
  12   2.0000      -1.110067       -30.2065
  13   2.0000      -1.109673       -30.1958
  14   2.0000      -1.106643       -30.1133
  15   2.0000      -1.091297       -29.6957
  16   2.0000      -0.648152       -17.6371
  17   2.0000      -0.644521       -17.5383
  18   2.0000      -0.644060       -17.5258
  19   2.0000      -0.643892       -17.5212
  20   2.0000      -0.625679       -17.0256
  21   2.0000      -0.625055       -17.0086
  22   2.0000      -0.617745       -16.8097
  23   2.0000      -0.617410       -16.8006
  24   2.0000      -0.572299       -15.5731
  25   2.0000      -0.526698       -14.3322
  26   2.0000      -0.525883       -14.3100
  27   2.0000      -0.525780       -14.3072
  28   2.0000      -0.493531       -13.4297
  29   2.0000      -0.493287       -13.4230
  30   2.0000      -0.492976       -13.4146
  31   2.0000      -0.452072       -12.3015
  32   2.0000      -0.426708       -11.6113
  33   2.0000      -0.426499       -11.6056
  34   2.0000      -0.425340       -11.5741
  35   2.0000      -0.423458       -11.5229
  36   2.0000      -0.411986       -11.2107
  37   2.0000      -0.411409       -11.1950
  38   2.0000      -0.411176       -11.1887
  39   2.0000      -0.408019       -11.1028
  40   0.0000       0.086534         2.3547
  41   0.0000       0.123287         3.3548
  42   0.0000       0.123697         3.3660
  43   0.0000       0.123781         3.3683
  44   0.0000       0.201825         5.4919

MULLIKEN ATOMIC CHARGES
-----------------------
   0 O :   -0.773577
   1 H :    0.368229
   2 H :    0.353510
   3 O :   -0.686895
   4 H :    0.369938
   5 H :    0.367898
   6 O :   -0.773598
   7 H :    0.366665
   8 H :    0.353867
   9 O :   -0.773795
  10 H :    0.368766
  11 H :    0.353477
  12 O :   -0.684753
  13 H :    0.366659
  14 H :    0.370284
  15 O :   -0.685841
  16 H :    0.370819
  17 H :    0.367934
  18 O :   -0.774728
  19 H :    0.368961
  20 H :    0.354027
  21 O :   -0.686051
  22 H :    0.367395
  23 H :    0.370809
Sum of atomic charges:    0.0000000

LOEWDIN ATOMIC CHARGES
----------------------
   0 O :   -0.324144
   1 H :    0.142166
   2 H :    0.162030
   3 O :   -0.275687
   4 H :    0.146677
   5 H :    0.147185
   6 O :   -0.324115
   7 H :    0.142086
   8 H :    0.162177
   9 O :   -0.324312
  10 H :    0.142408
  11 H :    0.162080
  12 O :   -0.274875
  13 H :    0.147463
  14 H :    0.147063
  15 O :   -0.274141
  16 H :    0.147816
  17 H :    0.147711
  18 O :   -0.324532
  19 H :    0.142831
  20 H :    0.162195
  21 O :   -0.274378
  22 H :    0.147258
  23 H :    0.147040

  Mayer bond orders larger than 0.1
B(  0-O ,  1-H ) :   0.6898 B(  0-O ,  2-H ) :   0.8783 B(  0-O , 13-H ) :   0.1000
B(  0-O , 16-H ) :   0.1007 B(  1-H ,  3-O ) :   0.2297 B(  3-O ,  4-H ) :   0.8093
B(  3-O ,  5-H ) :   0.8116 B(  4-H ,  9-O ) :   0.1023 B(  6-O ,  7-H ) :   0.6890
B(  6-O ,  8-H ) :   0.8782 B(  6-O , 23-H ) :   0.1011 B(  7-H , 12-O ) :   0.2320
B(  9-O , 10-H ) :   0.6901 B(  9-O , 11-H ) :   0.8784 B( 10-H , 21-O ) :   0.2287
B( 12-O , 13-H ) :   0.8126 B( 12-O , 14-H ) :   0.8095 B( 14-H , 18-O ) :   0.1018
B( 15-O , 16-H ) :   0.8096 B( 15-O , 17-H ) :   0.8129 B( 15-O , 19-H ) :   0.2293
B( 18-O , 19-H ) :   0.6896 B( 18-O , 20-H ) :   0.8780 B( 21-O , 22-H ) :   0.8132
B( 21-O , 23-H ) :   0.8095

Dispersion correction           -0.012655671
FINAL SINGLE POINT ENERGY      -611.634722525617

DIPOLE MOMENT
-------------
                                X             Y             Z
Electronic contribution:     -0.00433       0.00254      -0.00494
Nuclear contribution   :      0.01773      -0.01073       0.00282
                        -----------------------------------------
Total Dipole Moment    :      0.01341      -0.00819      -0.00211
                        -----------------------------------------
Magnitude (a.u.)       :      0.01585
Magnitude (Debye)      :      0.04029

                             ****ORCA TERMINATED NORMALLY****
TOTAL RUN TIME: 0 days 0 hours 1 minutes 7 seconds 225 msec
