                         Program Version 3.0.3 - RELEASE   -
|  1> ! B3LYP Def2-TZVP def2-TZVP/J RIJCOSX TightSCF Grid4 D3BJ
|  2>
|  3> %pal nprocs 12 end
|  4>
|  5> %scf
|  6>         maxiter 400
|  7> end
|  8>
|  9> * xyz  0  1
| 10> O  1.902866	1.200084	0.240898
| 11> H  1.215448	1.201519	1.035136
| 12> H  2.647137	1.759696	0.528025
| 13> O  0.121947	1.061345	2.057339
| 14> H  -0.682350	1.295585	1.510075
| 15> H  0.049043	0.066190	2.123530
| 16> O  -0.057746	-1.596518	1.612843
| 17> H  0.723346	-1.623343	0.909848
| 18> H  0.089266	-2.357404	2.203606
| 19> O  -1.809803	1.360646	0.196401
| 20> H  -1.979957	0.337894	0.025143
| 21> H  -2.690587	1.768576	0.282165
| 22> O  1.789056	-1.476976	-0.138103
| 23> H  2.058491	-0.523230	-0.004776
| 24> H  1.226706	-1.420114	-0.963946
| 25> O  0.087734	1.561498	-1.725621
| 26> H  0.859467	1.600898	-1.089888
| 27> H  -0.694439	1.679118	-1.115058
| 28> O  -0.045857	-0.962390	-2.050021
| 29> H  0.027418	0.085242	-2.001484
| 30> H  -0.041045	-1.190209	-2.997509
| 31> O  -2.010350	-1.148158	-0.196385
| 32> H  -1.411673	-1.229626	-0.992641
| 33> H  -1.419271	-1.464618	0.545869
| 34> **                         ****END OF INPUT****

CARTESIAN COORDINATES (ANGSTROEM)
---------------------------------
  O      1.902866    1.200084    0.240898
  H      1.215448    1.201519    1.035136
  H      2.647137    1.759696    0.528025
  O      0.121947    1.061345    2.057339
  H     -0.682350    1.295585    1.510075
  H      0.049043    0.066190    2.123530
  O     -0.057746   -1.596518    1.612843
  H      0.723346   -1.623343    0.909848
  H      0.089266   -2.357404    2.203606
  O     -1.809803    1.360646    0.196401
  H     -1.979957    0.337894    0.025143
  H     -2.690587    1.768576    0.282165
  O      1.789056   -1.476976   -0.138103
  H      2.058491   -0.523230   -0.004776
  H      1.226706   -1.420114   -0.963946
  O      0.087734    1.561498   -1.725621
  H      0.859467    1.600898   -1.089888
  H     -0.694439    1.679118   -1.115058
  O     -0.045857   -0.962390   -2.050021
  H      0.027418    0.085242   -2.001484
  H     -0.041045   -1.190209   -2.997509
  O     -2.010350   -1.148158   -0.196385
  H     -1.411673   -1.229626   -0.992641
  H     -1.419271   -1.464618    0.545869

 Total Charge           Charge          ....    0
 Multiplicity           Mult            ....    1
 Number of Electrons    NEL             ....   80
 Basis Dimension        Dim             ....  344

ORBITAL ENERGIES
----------------

  NO   OCC          E(Eh)            E(eV)
   0   2.0000     -19.136329      -520.7260
   1   2.0000     -19.136201      -520.7225
   2   2.0000     -19.136069      -520.7189
   3   2.0000     -19.135986      -520.7166
   4   2.0000     -19.120597      -520.2979
   5   2.0000     -19.120255      -520.2886
   6   2.0000     -19.120101      -520.2844
   7   2.0000     -19.119484      -520.2676
   8   2.0000      -1.034485       -28.1498
   9   2.0000      -1.018806       -27.7231
  10   2.0000      -1.015790       -27.6411
  11   2.0000      -1.015591       -27.6356
  12   2.0000      -0.994813       -27.0702
  13   2.0000      -0.994429       -27.0598
  14   2.0000      -0.991461       -26.9790
  15   2.0000      -0.976512       -26.5723
  16   2.0000      -0.544563       -14.8183
  17   2.0000      -0.540907       -14.7188
  18   2.0000      -0.540665       -14.7122
  19   2.0000      -0.540399       -14.7050
  20   2.0000      -0.521569       -14.1926
  21   2.0000      -0.520572       -14.1655
  22   2.0000      -0.514427       -13.9983
  23   2.0000      -0.514077       -13.9887
  24   2.0000      -0.466991       -12.7075
  25   2.0000      -0.425380       -11.5752
  26   2.0000      -0.423551       -11.5254
  27   2.0000      -0.423420       -11.5218
  28   2.0000      -0.393109       -10.6970
  29   2.0000      -0.392717       -10.6864
  30   2.0000      -0.391759       -10.6603
  31   2.0000      -0.353436        -9.6175
  32   2.0000      -0.328625        -8.9423
  33   2.0000      -0.328428        -8.9370
  34   2.0000      -0.327094        -8.9007
  35   2.0000      -0.325557        -8.8589
  36   2.0000      -0.314426        -8.5560
  37   2.0000      -0.313587        -8.5331
  38   2.0000      -0.313357        -8.5269
  39   2.0000      -0.310599        -8.4518
  40   0.0000       0.002830         0.0770
  41   0.0000       0.034528         0.9395
  42   0.0000       0.034987         0.9520
  43   0.0000       0.035074         0.9544
  44   0.0000       0.113994         3.1019

MULLIKEN ATOMIC CHARGES
-----------------------
   0 O :   -0.743833
   1 H :    0.364191
   2 H :    0.332881
   3 O :   -0.675418
   4 H :    0.362001
   5 H :    0.359450
   6 O :   -0.744028
   7 H :    0.362941
   8 H :    0.333139
   9 O :   -0.743667
  10 H :    0.364063
  11 H :    0.332782
  12 O :   -0.673491
  13 H :    0.358169
  14 H :    0.362178
  15 O :   -0.673991
  16 H :    0.362599
  17 H :    0.359401
  18 O :   -0.744657
  19 H :    0.364579
  20 H :    0.333325
  21 O :   -0.674131
  22 H :    0.358903
  23 H :    0.362614
Sum of atomic charges:    0.0000000

LOEWDIN ATOMIC CHARGES
----------------------
   0 O :   -0.318689
   1 H :    0.140888
   2 H :    0.158698
   3 O :   -0.273595
   4 H :    0.145257
   5 H :    0.145729
   6 O :   -0.318700
   7 H :    0.140819
   8 H :    0.158823
   9 O :   -0.318869
  10 H :    0.141068
  11 H :    0.158738
  12 O :   -0.272831
  13 H :    0.145942
  14 H :    0.145635
  15 O :   -0.271999
  16 H :    0.146390
  17 H :    0.146237
  18 O :   -0.319066
  19 H :    0.141502
  20 H :    0.158852
  21 O :   -0.272239
  22 H :    0.145800
  23 H :    0.145609

  Mayer bond orders larger than 0.1
B(  0-O ,  1-H ) :   0.6856 B(  0-O ,  2-H ) :   0.8872 B(  0-O , 13-H ) :   0.1093
B(  0-O , 16-H ) :   0.1098 B(  1-H ,  3-O ) :   0.2363 B(  3-O ,  4-H ) :   0.8091
B(  3-O ,  5-H ) :   0.8119 B(  4-H ,  9-O ) :   0.1115 B(  5-H ,  6-O ) :   0.1085
B(  6-O ,  7-H ) :   0.6847 B(  6-O ,  8-H ) :   0.8871 B(  6-O , 23-H ) :   0.1101
B(  7-H , 12-O ) :   0.2385 B(  9-O , 10-H ) :   0.6861 B(  9-O , 11-H ) :   0.8873
B(  9-O , 17-H ) :   0.1071 B( 10-H , 21-O ) :   0.2358 B( 12-O , 13-H ) :   0.8126
B( 12-O , 14-H ) :   0.8095 B( 14-H , 18-O ) :   0.1111 B( 15-O , 16-H ) :   0.8097
B( 15-O , 17-H ) :   0.8132 B( 15-O , 19-H ) :   0.2362 B( 18-O , 19-H ) :   0.6854
B( 18-O , 20-H ) :   0.8870 B( 18-O , 22-H ) :   0.1070 B( 21-O , 22-H ) :   0.8135
B( 21-O , 23-H ) :   0.8096

Dispersion correction           -0.026097328
FINAL SINGLE POINT ENERGY      -611.545115826533

DIPOLE MOMENT
-------------
                                X             Y             Z
Electronic contribution:     -0.00473       0.00295      -0.00491
Nuclear contribution   :      0.01773      -0.01073       0.00282
                        -----------------------------------------
Total Dipole Moment    :      0.01300      -0.00778      -0.00208
                        -----------------------------------------
Magnitude (a.u.)       :      0.01530
Magnitude (Debye)      :      0.03888

                             ****ORCA TERMINATED NORMALLY****
TOTAL RUN TIME: 0 days 0 hours 1 minutes 3 seconds 134 msec
