                         Program Version 3.0.3 - RELEASE   -
|  1> ! B3LYP Def2-TZVP def2-TZVP/J RIJCOSX TightSCF Grid4 D3BJ
|  2>
|  3> %pal nprocs 12 end
|  4>
|  5> %scf
|  6>         maxiter 400
|  7> end
|  8>
|  9> * xyz  0  1
| 10> O  1.994004	1.309692	0.217771
| 11> H  1.325875	1.253611	0.979942
| 12> H  2.727352	1.848064	0.543088
| 13> O  0.160451	1.016273	2.027547
| 14> H  -0.644112	1.259577	1.516331
| 15> H  0.064707	0.047374	2.158365
| 16> O  -0.109598	-1.694088	1.717073
| 17> H  0.633250	-1.668712	1.027379
| 18> H  0.061199	-2.467328	2.270145
| 19> O  -1.842613	1.356523	0.195221
| 20> H  -2.012367	0.370086	0.028730
| 21> H  -2.709681	1.773483	0.281917
| 22> O  1.740195	-1.422890	-0.101059
| 23> H  2.054318	-0.497307	0.004170
| 24> H  1.217905	-1.392734	-0.934671
| 25> O  0.094399	1.593497	-1.745095
| 26> H  0.871049	1.676400	-1.146996
| 27> H  -0.670889	1.715381	-1.140076
| 28> O  -0.060239	-0.951947	-2.126605
| 29> H  0.018632	0.058098	-2.057860
| 30> H  -0.041910	-1.163252	-3.069076
| 31> O  -2.018331	-1.207117	-0.202890
| 32> H  -1.432459	-1.289710	-0.988344
| 33> H  -1.466289	-1.537273	0.540437
| 34> **                         ****END OF INPUT****

CARTESIAN COORDINATES (ANGSTROEM)
---------------------------------
  O      1.994004    1.309692    0.217771
  H      1.325875    1.253611    0.979942
  H      2.727352    1.848064    0.543088
  O      0.160451    1.016273    2.027547
  H     -0.644112    1.259577    1.516331
  H      0.064707    0.047374    2.158365
  O     -0.109598   -1.694088    1.717073
  H      0.633250   -1.668712    1.027379
  H      0.061199   -2.467328    2.270145
  O     -1.842613    1.356523    0.195221
  H     -2.012367    0.370086    0.028730
  H     -2.709681    1.773483    0.281917
  O      1.740195   -1.422890   -0.101059
  H      2.054318   -0.497307    0.004170
  H      1.217905   -1.392734   -0.934671
  O      0.094399    1.593497   -1.745095
  H      0.871049    1.676400   -1.146996
  H     -0.670889    1.715381   -1.140076
  O     -0.060239   -0.951947   -2.126605
  H      0.018632    0.058098   -2.057860
  H     -0.041910   -1.163252   -3.069076
  O     -2.018331   -1.207117   -0.202890
  H     -1.432459   -1.289710   -0.988344
  H     -1.466289   -1.537273    0.540437

 Total Charge           Charge          ....    0
 Multiplicity           Mult            ....    1
 Number of Electrons    NEL             ....   80
 Basis Dimension        Dim             ....  344

ORBITAL ENERGIES
----------------

  NO   OCC          E(Eh)            E(eV)
   0   2.0000     -19.137491      -520.7576
   1   2.0000     -19.136874      -520.7408
   2   2.0000     -19.135274      -520.6973
   3   2.0000     -19.134132      -520.6662
   4   2.0000     -19.118005      -520.2274
   5   2.0000     -19.117200      -520.2054
   6   2.0000     -19.116836      -520.1955
   7   2.0000     -19.116342      -520.1821
   8   2.0000      -1.034824       -28.1590
   9   2.0000      -1.022378       -27.8203
  10   2.0000      -1.020178       -27.7605
  11   2.0000      -1.019290       -27.7363
  12   2.0000      -0.999044       -27.1854
  13   2.0000      -0.997936       -27.1552
  14   2.0000      -0.996157       -27.1068
  15   2.0000      -0.984580       -26.7918
  16   2.0000      -0.550376       -14.9765
  17   2.0000      -0.548687       -14.9305
  18   2.0000      -0.545852       -14.8534
  19   2.0000      -0.544107       -14.8059
  20   2.0000      -0.524517       -14.2728
  21   2.0000      -0.522888       -14.2285
  22   2.0000      -0.520174       -14.1546
  23   2.0000      -0.515181       -14.0188
  24   2.0000      -0.458355       -12.4725
  25   2.0000      -0.423186       -11.5155
  26   2.0000      -0.421730       -11.4759
  27   2.0000      -0.418152       -11.3785
  28   2.0000      -0.391415       -10.6509
  29   2.0000      -0.390783       -10.6338
  30   2.0000      -0.388223       -10.5641
  31   2.0000      -0.355565        -9.6754
  32   2.0000      -0.330962        -9.0059
  33   2.0000      -0.330362        -8.9896
  34   2.0000      -0.328685        -8.9440
  35   2.0000      -0.327801        -8.9199
  36   2.0000      -0.316634        -8.6161
  37   2.0000      -0.312805        -8.5119
  38   2.0000      -0.311893        -8.4870
  39   2.0000      -0.311532        -8.4772
  40   0.0000       0.003753         0.1021
  41   0.0000       0.034872         0.9489
  42   0.0000       0.035231         0.9587
  43   0.0000       0.036278         0.9872
  44   0.0000       0.112377         3.0579

MULLIKEN ATOMIC CHARGES
-----------------------
   0 O :   -0.726156
   1 H :    0.368548
   2 H :    0.329361
   3 O :   -0.686640
   4 H :    0.357168
   5 H :    0.356359
   6 O :   -0.723934
   7 H :    0.367176
   8 H :    0.330310
   9 O :   -0.726189
  10 H :    0.365896
  11 H :    0.331331
  12 O :   -0.687414
  13 H :    0.352866
  14 H :    0.357802
  15 O :   -0.677229
  16 H :    0.360231
  17 H :    0.353365
  18 O :   -0.730001
  19 H :    0.365063
  20 H :    0.330644
  21 O :   -0.682070
  22 H :    0.355660
  23 H :    0.357852
Sum of atomic charges:    0.0000000

LOEWDIN ATOMIC CHARGES
----------------------
   0 O :   -0.303723
   1 H :    0.136827
   2 H :    0.156104
   3 O :   -0.274218
   4 H :    0.139567
   5 H :    0.140965
   6 O :   -0.300522
   7 H :    0.138258
   8 H :    0.156711
   9 O :   -0.297915
  10 H :    0.138441
  11 H :    0.156493
  12 O :   -0.277747
  13 H :    0.141230
  14 H :    0.140938
  15 O :   -0.268668
  16 H :    0.142533
  17 H :    0.140884
  18 O :   -0.303100
  19 H :    0.133861
  20 H :    0.155912
  21 O :   -0.274050
  22 H :    0.141026
  23 H :    0.140193

  Mayer bond orders larger than 0.1
B(  0-O ,  1-H ) :   0.7290 B(  0-O ,  2-H ) :   0.8916 B(  1-H ,  3-O ) :   0.1829
B(  3-O ,  4-H ) :   0.8248 B(  3-O ,  5-H ) :   0.8269 B(  6-O ,  7-H ) :   0.7318
B(  6-O ,  8-H ) :   0.8910 B(  7-H , 12-O ) :   0.1799 B(  9-O , 10-H ) :   0.7275
B(  9-O , 11-H ) :   0.8903 B( 10-H , 21-O ) :   0.1894 B( 12-O , 13-H ) :   0.8279
B( 12-O , 14-H ) :   0.8250 B( 15-O , 16-H ) :   0.8265 B( 15-O , 17-H ) :   0.8304
B( 15-O , 19-H ) :   0.1960 B( 18-O , 19-H ) :   0.7223 B( 18-O , 20-H ) :   0.8910
B( 21-O , 22-H ) :   0.8295 B( 21-O , 23-H ) :   0.8265

Dispersion correction           -0.025155834
FINAL SINGLE POINT ENERGY      -611.553941363891

DIPOLE MOMENT
-------------
                                X             Y             Z
Electronic contribution:     -0.03050       0.01864      -0.00216
Nuclear contribution   :      0.06663      -0.01176       0.04125
                        -----------------------------------------
Total Dipole Moment    :      0.03613       0.00688       0.03908
                        -----------------------------------------
Magnitude (a.u.)       :      0.05367
Magnitude (Debye)      :      0.13641

                             ****ORCA TERMINATED NORMALLY****
TOTAL RUN TIME: 0 days 0 hours 1 minutes 4 seconds 571 msec
