                         Program Version 3.0.3 - RELEASE   -
|  1> ! B3LYP Def2-TZVP def2-TZVP/J RIJCOSX TightSCF Grid4 D3BJ COSMO
|  2>
|  3> %pal nprocs 12 end
|  4>
|  5> %scf
|  6>         maxiter 400
|  7> end
|  8>
|  9> %cosmo
| 10>         SMD true
| 11>         solvent "WATER"
| 12> end
| 13>
| 14> * xyz  0  1
| 15> O  1.970982	1.286056	0.173865
| 16> H  1.333981	1.249410	0.948630
| 17> H  2.733250	1.796443	0.487088
| 18> O  0.130954	1.001208	2.046694
| 19> H  -0.639298	1.221625	1.470121
| 20> H  0.064447	0.022949	2.141845
| 21> O  -0.121162	-1.685626	1.732854
| 22> H  0.627683	-1.695710	1.065339
| 23> H  0.020209	-2.457834	2.301169
| 24> O  -1.805280	1.327487	0.156449
| 25> H  -2.023364	0.361576	0.013990
| 26> H  -2.652839	1.773107	0.305919
| 27> O  1.776930	-1.435583	-0.111400
| 28> H  2.044087	-0.496387	0.025353
| 29> H  1.191856	-1.373151	-0.904213
| 30> O  0.091525	1.738861	-1.774690
| 31> H  0.857473	1.730474	-1.152854
| 32> H  -0.679263	1.759909	-1.160083
| 33> O  -0.065444	-0.894352	-2.061865
| 34> H  0.016065	0.104048	-2.065780
| 35> H  -0.015438	-1.167871	-2.990423
| 36> O  -2.033623	-1.314236	-0.209789
| 37> H  -1.420828	-1.293342	-0.982121
| 38> H  -1.448055	-1.573361	0.539345
| 39> **                         ****END OF INPUT****

CARTESIAN COORDINATES (ANGSTROEM)
---------------------------------
  O      1.970982    1.286056    0.173865
  H      1.333981    1.249410    0.948630
  H      2.733250    1.796443    0.487088
  O      0.130954    1.001208    2.046694
  H     -0.639298    1.221625    1.470121
  H      0.064447    0.022949    2.141845
  O     -0.121162   -1.685626    1.732854
  H      0.627683   -1.695710    1.065339
  H      0.020209   -2.457834    2.301169
  O     -1.805280    1.327487    0.156449
  H     -2.023364    0.361576    0.013990
  H     -2.652839    1.773107    0.305919
  O      1.776930   -1.435583   -0.111400
  H      2.044087   -0.496387    0.025353
  H      1.191856   -1.373151   -0.904213
  O      0.091525    1.738861   -1.774690
  H      0.857473    1.730474   -1.152854
  H     -0.679263    1.759909   -1.160083
  O     -0.065444   -0.894352   -2.061865
  H      0.016065    0.104048   -2.065780
  H     -0.015438   -1.167871   -2.990423
  O     -2.033623   -1.314236   -0.209789
  H     -1.420828   -1.293342   -0.982121
  H     -1.448055   -1.573361    0.539345

 Total Charge           Charge          ....    0
 Multiplicity           Mult            ....    1
 Number of Electrons    NEL             ....   80
 Basis Dimension        Dim             ....  344

ORBITAL ENERGIES
----------------

  NO   OCC          E(Eh)            E(eV)
   0   2.0000     -19.130894      -520.5781
   1   2.0000     -19.129346      -520.5360
   2   2.0000     -19.129192      -520.5318
   3   2.0000     -19.127786      -520.4935
   4   2.0000     -19.118151      -520.2313
   5   2.0000     -19.117118      -520.2032
   6   2.0000     -19.116938      -520.1983
   7   2.0000     -19.116174      -520.1775
   8   2.0000      -1.029658       -28.0184
   9   2.0000      -1.015855       -27.6428
  10   2.0000      -1.014279       -27.5999
  11   2.0000      -1.013088       -27.5675
  12   2.0000      -0.996995       -27.1296
  13   2.0000      -0.996096       -27.1051
  14   2.0000      -0.994445       -27.0602
  15   2.0000      -0.981488       -26.7077
  16   2.0000      -0.539967       -14.6932
  17   2.0000      -0.537701       -14.6316
  18   2.0000      -0.535272       -14.5655
  19   2.0000      -0.532039       -14.4775
  20   2.0000      -0.521742       -14.1973
  21   2.0000      -0.519554       -14.1378
  22   2.0000      -0.518971       -14.1219
  23   2.0000      -0.511180       -13.9099
  24   2.0000      -0.453377       -12.3370
  25   2.0000      -0.423142       -11.5143
  26   2.0000      -0.419282       -11.4092
  27   2.0000      -0.415195       -11.2980
  28   2.0000      -0.391697       -10.6586
  29   2.0000      -0.389920       -10.6103
  30   2.0000      -0.388260       -10.5651
  31   2.0000      -0.359398        -9.7797
  32   2.0000      -0.325404        -8.8547
  33   2.0000      -0.324883        -8.8405
  34   2.0000      -0.324482        -8.8296
  35   2.0000      -0.323158        -8.7936
  36   2.0000      -0.316607        -8.6153
  37   2.0000      -0.316414        -8.6101
  38   2.0000      -0.315751        -8.5920
  39   2.0000      -0.314523        -8.5586
  40   0.0000       0.018371         0.4999
  41   0.0000       0.059834         1.6282
  42   0.0000       0.060472         1.6455
  43   0.0000       0.061535         1.6744
  44   0.0000       0.126495         3.4421

MULLIKEN ATOMIC CHARGES
-----------------------
   0 O :   -0.747937
   1 H :    0.375674
   2 H :    0.381457
   3 O :   -0.751754
   4 H :    0.369529
   5 H :    0.369355
   6 O :   -0.746523
   7 H :    0.375607
   8 H :    0.382658
   9 O :   -0.741918
  10 H :    0.370492
  11 H :    0.384944
  12 O :   -0.750464
  13 H :    0.364303
  14 H :    0.371035
  15 O :   -0.745376
  16 H :    0.372151
  17 H :    0.370701
  18 O :   -0.746982
  19 H :    0.369700
  20 H :    0.384096
  21 O :   -0.751827
  22 H :    0.371216
  23 H :    0.369865
Sum of atomic charges:    0.0000000

LOEWDIN ATOMIC CHARGES
----------------------
   0 O :   -0.291640
   1 H :    0.141629
   2 H :    0.181483
   3 O :   -0.318986
   4 H :    0.139576
   5 H :    0.140169
   6 O :   -0.289249
   7 H :    0.143809
   8 H :    0.182256
   9 O :   -0.278889
  10 H :    0.145596
  11 H :    0.183487
  12 O :   -0.322547
  13 H :    0.141289
  14 H :    0.141486
  15 O :   -0.321537
  16 H :    0.142955
  17 H :    0.142450
  18 O :   -0.283444
  19 H :    0.142409
  20 H :    0.182601
  21 O :   -0.326517
  22 H :    0.141029
  23 H :    0.140588

  Mayer bond orders larger than 0.1
B(  0-O ,  1-H ) :   0.7526 B(  0-O ,  2-H ) :   0.8550 B(  0-O , 13-H ) :   0.1119
B(  0-O , 16-H ) :   0.1014 B(  1-H ,  3-O ) :   0.1503 B(  3-O ,  4-H ) :   0.8047
B(  3-O ,  5-H ) :   0.8059 B(  4-H ,  9-O ) :   0.1111 B(  5-H ,  6-O ) :   0.1084
B(  6-O ,  7-H ) :   0.7559 B(  6-O ,  8-H ) :   0.8537 B(  6-O , 23-H ) :   0.1057
B(  7-H , 12-O ) :   0.1458 B(  9-O , 10-H ) :   0.7604 B(  9-O , 11-H ) :   0.8528
B(  9-O , 17-H ) :   0.1001 B( 10-H , 21-O ) :   0.1480 B( 12-O , 13-H ) :   0.8083
B( 12-O , 14-H ) :   0.8072 B( 14-H , 18-O ) :   0.1062 B( 15-O , 16-H ) :   0.8104
B( 15-O , 17-H ) :   0.8117 B( 15-O , 19-H ) :   0.1581 B( 18-O , 19-H ) :   0.7531
B( 18-O , 20-H ) :   0.8535 B( 18-O , 22-H ) :   0.1012 B( 21-O , 22-H ) :   0.8099
B( 21-O , 23-H ) :   0.8092

Dispersion correction           -0.025140604
FINAL SINGLE POINT ENERGY      -611.583802902303

DIPOLE MOMENT
-------------
                                X             Y             Z
Electronic contribution:     -0.02770       0.02024      -0.01034
Nuclear contribution   :      0.10005      -0.07137       0.11577
                        -----------------------------------------
Total Dipole Moment    :      0.07235      -0.05113       0.10543
                        -----------------------------------------
Magnitude (a.u.)       :      0.13771
Magnitude (Debye)      :      0.35004

                             ****ORCA TERMINATED NORMALLY****
TOTAL RUN TIME: 0 days 0 hours 1 minutes 5 seconds 606 msec
