                         Program Version 4.2.0 -  RELEASE  -
|  1> # 12h2o.su.etal.mol1,2,3,7,9
|  2> ! MP2 def2-TZVP EnGrad TightSCF
|  3>
|  4> %pal
|  5>     nprocs 6
|  6> end
|  7>
|  8> %maxcore 8000
|  9>
| 10> %scf
| 11>     ConvForced true
| 12> end
| 13>
| 14> *xyz 0 1
| 15> O  -1.794470000  -0.923410000   2.768350000
| 16> H  -2.338250000  -1.359750000   3.430940000
| 17> H  -0.879480000  -1.303000000   2.865760000
| 18> O   0.923410000  -1.794470000  -2.768350000
| 19> H   1.359750000  -2.338250000  -3.430940000
| 20> H   1.303000000  -0.879480000  -2.865760000
| 21> O  -1.752130000  -0.741530000  -2.896280000
| 22> H  -2.036450000  -0.920500000  -1.984040000
| 23> H  -0.921210000  -1.242140000  -2.984230000
| 24> O  -1.737840000  -0.885520000  -0.052730000
| 25> H  -2.090180000  -1.032320000   0.841890000
| 26> H  -0.839590000  -1.284090000  -0.017130000
| 27> O   0.741530000  -1.752130000   2.896280000
| 28> H   0.920500000  -2.036450000   1.984040000
| 29> H   1.242140000  -0.921210000   2.984230000
| 30> *
| 31>
| 32>                          ****END OF INPUT****

CARTESIAN COORDINATES (ANGSTROEM)
---------------------------------
  O     -1.794470   -0.923410    2.768350
  H     -2.338250   -1.359750    3.430940
  H     -0.879480   -1.303000    2.865760
  O      0.923410   -1.794470   -2.768350
  H      1.359750   -2.338250   -3.430940
  H      1.303000   -0.879480   -2.865760
  O     -1.752130   -0.741530   -2.896280
  H     -2.036450   -0.920500   -1.984040
  H     -0.921210   -1.242140   -2.984230
  O     -1.737840   -0.885520   -0.052730
  H     -2.090180   -1.032320    0.841890
  H     -0.839590   -1.284090   -0.017130
  O      0.741530   -1.752130    2.896280
  H      0.920500   -2.036450    1.984040
  H      1.242140   -0.921210    2.984230

 Total Charge           Charge          ....    0
 Multiplicity           Mult            ....    1
 Number of Electrons    NEL             ....   50
 Basis Dimension        Dim             ....  215

ORBITAL ENERGIES
----------------

  NO   OCC          E(Eh)            E(eV)
   0   2.0000     -20.617239      -561.0236
   1   2.0000     -20.591275      -560.3171
   2   2.0000     -20.550598      -559.2102
   3   2.0000     -20.544037      -559.0317
   4   2.0000     -20.492679      -557.6341
   5   2.0000      -1.402639       -38.1678
   6   2.0000      -1.368882       -37.2492
   7   2.0000      -1.337331       -36.3906
   8   2.0000      -1.323114       -36.0038
   9   2.0000      -1.278026       -34.7769
  10   2.0000      -0.759778       -20.6746
  11   2.0000      -0.735912       -20.0252
  12   2.0000      -0.722006       -19.6468
  13   2.0000      -0.693842       -18.8804
  14   2.0000      -0.656036       -17.8516
  15   2.0000      -0.639741       -17.4083
  16   2.0000      -0.606386       -16.5006
  17   2.0000      -0.589724       -16.0472
  18   2.0000      -0.570011       -15.5108
  19   2.0000      -0.542289       -14.7564
  20   2.0000      -0.535930       -14.5834
  21   2.0000      -0.509735       -13.8706
  22   2.0000      -0.497753       -13.5445
  23   2.0000      -0.487497       -13.2655
  24   2.0000      -0.442722       -12.0471
  25   0.0000       0.083331         2.2676
  26   0.0000       0.113064         3.0766
  27   0.0000       0.155981         4.2445
  28   0.0000       0.156754         4.2655
  29   0.0000       0.183911         5.0045

MULLIKEN ATOMIC CHARGES
-----------------------
   0 O :   -0.732143
   1 H :    0.338768
   2 H :    0.367074
   3 O :   -0.698151
   4 H :    0.353525
   5 H :    0.360995
   6 O :   -0.728407
   7 H :    0.368985
   8 H :    0.335539
   9 O :   -0.700714
  10 H :    0.375862
  11 H :    0.310424
  12 O :   -0.674626
  13 H :    0.355797
  14 H :    0.367070
Sum of atomic charges:   -0.0000000

LOEWDIN ATOMIC CHARGES
----------------------
   0 O :   -0.337960
   1 H :    0.154885
   2 H :    0.142622
   3 O :   -0.313524
   4 H :    0.163637
   5 H :    0.188112
   6 O :   -0.358122
   7 H :    0.150117
   8 H :    0.137879
   9 O :   -0.324165
  10 H :    0.153064
  11 H :    0.156870
  12 O :   -0.266290
  13 H :    0.172268
  14 H :    0.180607

  Mayer bond orders larger than 0.100000
B(  0-O ,  1-H ) :   0.8497 B(  0-O ,  2-H ) :   0.7740 B(  3-O ,  4-H ) :   0.8412
B(  3-O ,  5-H ) :   0.8302 B(  6-O ,  7-H ) :   0.8212 B(  6-O ,  8-H ) :   0.8383
B(  9-O , 10-H ) :   0.8004 B(  9-O , 11-H ) :   0.8590 B( 12-O , 13-H ) :   0.8379
B( 12-O , 14-H ) :   0.8313

MP2 TOTAL ENERGY:     -381.592140950 Eh
FINAL SINGLE POINT ENERGY      -381.592140949749

DIPOLE MOMENT
-------------
                                X             Y             Z
Electronic contribution:      0.01465       0.05690       0.27602
Nuclear contribution   :      2.46315      -0.93480       0.77428
                        -----------------------------------------
Total Dipole Moment    :      2.47780      -0.87790       1.05030
                        -----------------------------------------
Magnitude (a.u.)       :      2.83078
Magnitude (Debye)      :      7.19528

Rotational constants in cm-1:     0.099515     0.028884     0.022546
Rotational constants in MHz :  2983.380781   865.909684   675.920588

                             ****ORCA TERMINATED NORMALLY****
TOTAL RUN TIME: 0 days 0 hours 0 minutes 56 seconds 126 msec
