                         Program Version 4.2.0 -  RELEASE  -
|  1> # 12mecn.remya.etal.2.mol7,9
|  2> ! MP2 def2-TZVP EnGrad TightSCF
|  3>
|  4> %pal
|  5>     nprocs 6
|  6> end
|  7>
|  8> %maxcore 8000
|  9>
| 10> %scf
| 11>     ConvForced true
| 12> end
| 13>
| 14> *xyz 0 1
| 15> C   1.502241000   0.651296000   1.710523000
| 16> H   1.309219000   1.637164000   2.143202000
| 17> H   2.493408000   0.297996000   2.009069000
| 18> H   0.746597000  -0.059850000   2.055508000
| 19> C   1.447974000   0.738517000   0.269805000
| 20> N   1.405612000   0.808047000  -0.894380000
| 21> C   0.923766000   4.000693000  -1.575910000
| 22> H   0.011949000   4.478423000  -1.939550000
| 23> H   0.947903000   2.966558000  -1.929960000
| 24> H   1.805950000   4.519548000  -1.956520000
| 25> C   0.942834000   3.994846000  -0.131200000
| 26> N   0.960035000   3.982544000   1.035639000
| 27> *
| 28>
| 29>                          ****END OF INPUT****

CARTESIAN COORDINATES (ANGSTROEM)
---------------------------------
  C      1.502241    0.651296    1.710523
  H      1.309219    1.637164    2.143202
  H      2.493408    0.297996    2.009069
  H      0.746597   -0.059850    2.055508
  C      1.447974    0.738517    0.269805
  N      1.405612    0.808047   -0.894380
  C      0.923766    4.000693   -1.575910
  H      0.011949    4.478423   -1.939550
  H      0.947903    2.966558   -1.929960
  H      1.805950    4.519548   -1.956520
  C      0.942834    3.994846   -0.131200
  N      0.960035    3.982544    1.035639

 Total Charge           Charge          ....    0
 Multiplicity           Mult            ....    1
 Number of Electrons    NEL             ....   44
 Basis Dimension        Dim             ....  222

ORBITAL ENERGIES
----------------

  NO   OCC          E(Eh)            E(eV)
   0   2.0000     -15.571566      -423.7239
   1   2.0000     -15.569348      -423.6635
   2   2.0000     -11.283837      -307.0488
   3   2.0000     -11.281147      -306.9756
   4   2.0000     -11.273836      -306.7767
   5   2.0000     -11.269352      -306.6547
   6   2.0000      -1.217709       -33.1356
   7   2.0000      -1.212628       -32.9973
   8   2.0000      -1.037415       -28.2295
   9   2.0000      -1.033077       -28.1114
  10   2.0000      -0.694353       -18.8943
  11   2.0000      -0.690020       -18.7764
  12   2.0000      -0.630157       -17.1474
  13   2.0000      -0.624421       -16.9913
  14   2.0000      -0.622303       -16.9337
  15   2.0000      -0.614242       -16.7144
  16   2.0000      -0.558552       -15.1990
  17   2.0000      -0.555127       -15.1058
  18   2.0000      -0.460549       -12.5322
  19   2.0000      -0.459594       -12.5062
  20   2.0000      -0.455643       -12.3987
  21   2.0000      -0.453205       -12.3323
  22   0.0000       0.128581         3.4989
  23   0.0000       0.142135         3.8677
  24   0.0000       0.171315         4.6617
  25   0.0000       0.171802         4.6750
  26   0.0000       0.180631         4.9152

MULLIKEN ATOMIC CHARGES
-----------------------
   0 C :   -0.285152
   1 H :    0.205475
   2 H :    0.166741
   3 H :    0.166857
   4 C :   -0.096076
   5 N :   -0.155717
   6 C :   -0.284550
   7 H :    0.165559
   8 H :    0.206503
   9 H :    0.165318
  10 C :   -0.107535
  11 N :   -0.147422
Sum of atomic charges:   -0.0000000

LOEWDIN ATOMIC CHARGES
----------------------
   0 C :   -0.280775
   1 H :    0.157412
   2 H :    0.152693
   3 H :    0.152164
   4 C :   -0.206683
   5 N :    0.029527
   6 C :   -0.283015
   7 H :    0.150060
   8 H :    0.157233
   9 H :    0.151550
  10 C :   -0.208925
  11 N :    0.028760

  Mayer bond orders larger than 0.100000
B(  0-C ,  1-H ) :   0.9026 B(  0-C ,  2-H ) :   0.9153 B(  0-C ,  3-H ) :   0.9157
B(  0-C ,  4-C ) :   0.9003 B(  4-C ,  5-N ) :   2.7650 B(  6-C ,  7-H ) :   0.9159
B(  6-C ,  8-H ) :   0.9008 B(  6-C ,  9-H ) :   0.9147 B(  6-C , 10-C ) :   0.9027
B( 10-C , 11-N ) :   2.7821

MP2 TOTAL ENERGY:     -264.976092341 Eh
FINAL SINGLE POINT ENERGY      -264.976092341141

DIPOLE MOMENT
-------------
                                X             Y             Z
Electronic contribution:     -0.07956       0.18539       0.02821
Nuclear contribution   :      0.11894      -0.30064      -0.02885
                        -----------------------------------------
Total Dipole Moment    :      0.03938      -0.11526      -0.00064
                        -----------------------------------------
Magnitude (a.u.)       :      0.12180
Magnitude (Debye)      :      0.30959

Rotational constants in cm-1:     0.170638     0.067053     0.049042
Rotational constants in MHz :  5115.600789  2010.209435  1470.253561

                             ****ORCA TERMINATED NORMALLY****
TOTAL RUN TIME: 0 days 0 hours 1 minutes 13 seconds 26 msec
