                         Program Version 4.2.0 -  RELEASE  -
|  1> # 12mecn.remya.etal.2.mol0,2,3
|  2> ! MP2 def2-TZVP EnGrad TightSCF
|  3>
|  4> %pal
|  5>     nprocs 6
|  6> end
|  7>
|  8> %maxcore 8000
|  9>
| 10> %scf
| 11>     ConvForced true
| 12> end
| 13>
| 14> *xyz 0 1
| 15> C  -0.869520000  -3.929380000   1.700199000
| 16> H  -0.057420000  -3.268850000   2.015352000
| 17> H  -0.697530000  -4.930670000   2.101524000
| 18> H  -1.821490000  -3.546590000   2.077146000
| 19> C  -0.916080000  -3.969960000   0.256749000
| 20> N  -0.955390000  -3.995980000  -0.909290000
| 21> C  -4.219070000  -3.477410000  -1.501740000
| 22> H  -3.251530000  -3.803540000  -1.893830000
| 23> H  -4.452920000  -2.481700000  -1.890840000
| 24> H  -4.992170000  -4.178130000  -1.824640000
| 25> C  -4.154550000  -3.418790000  -0.058340000
| 26> N  -4.091140000  -3.354840000   1.104432000
| 27> C  -5.181310000   2.853865000  -1.626100000
| 28> H  -5.488260000   3.811434000  -2.053310000
| 29> H  -5.857590000   2.068112000  -1.968630000
| 30> H  -4.170750000   2.611402000  -1.966640000
| 31> C  -5.187260000   2.919160000  -0.181450000
| 32> N  -5.181700000   2.970641000   0.983640000
| 33> *
| 34>
| 35>                          ****END OF INPUT****

CARTESIAN COORDINATES (ANGSTROEM)
---------------------------------
  C     -0.869520   -3.929380    1.700199
  H     -0.057420   -3.268850    2.015352
  H     -0.697530   -4.930670    2.101524
  H     -1.821490   -3.546590    2.077146
  C     -0.916080   -3.969960    0.256749
  N     -0.955390   -3.995980   -0.909290
  C     -4.219070   -3.477410   -1.501740
  H     -3.251530   -3.803540   -1.893830
  H     -4.452920   -2.481700   -1.890840
  H     -4.992170   -4.178130   -1.824640
  C     -4.154550   -3.418790   -0.058340
  N     -4.091140   -3.354840    1.104432
  C     -5.181310    2.853865   -1.626100
  H     -5.488260    3.811434   -2.053310
  H     -5.857590    2.068112   -1.968630
  H     -4.170750    2.611402   -1.966640
  C     -5.187260    2.919160   -0.181450
  N     -5.181700    2.970641    0.983640

 Total Charge           Charge          ....    0
 Multiplicity           Mult            ....    1
 Number of Electrons    NEL             ....   66
 Basis Dimension        Dim             ....  333

ORBITAL ENERGIES
----------------

  NO   OCC          E(Eh)            E(eV)
   0   2.0000     -15.573301      -423.7711
   1   2.0000     -15.571798      -423.7302
   2   2.0000     -15.571094      -423.7110
   3   2.0000     -11.285987      -307.1073
   4   2.0000     -11.283337      -307.0352
   5   2.0000     -11.283236      -307.0324
   6   2.0000     -11.280009      -306.9446
   7   2.0000     -11.274170      -306.7858
   8   2.0000     -11.270544      -306.6871
   9   2.0000      -1.218545       -33.1583
  10   2.0000      -1.214737       -33.0547
  11   2.0000      -1.214210       -33.0403
  12   2.0000      -1.044577       -28.4244
  13   2.0000      -1.037360       -28.2280
  14   2.0000      -1.033893       -28.1337
  15   2.0000      -0.701920       -19.1002
  16   2.0000      -0.696152       -18.9433
  17   2.0000      -0.690987       -18.8027
  18   2.0000      -0.633508       -17.2386
  19   2.0000      -0.631591       -17.1865
  20   2.0000      -0.631243       -17.1770
  21   2.0000      -0.624359       -16.9897
  22   2.0000      -0.621208       -16.9039
  23   2.0000      -0.614925       -16.7330
  24   2.0000      -0.559473       -15.2240
  25   2.0000      -0.556152       -15.1337
  26   2.0000      -0.555856       -15.1256
  27   2.0000      -0.460475       -12.5302
  28   2.0000      -0.459863       -12.5135
  29   2.0000      -0.458093       -12.4654
  30   2.0000      -0.457626       -12.4526
  31   2.0000      -0.457046       -12.4369
  32   2.0000      -0.455826       -12.4037
  33   0.0000       0.108669         2.9570
  34   0.0000       0.130751         3.5579
  35   0.0000       0.142875         3.8878
  36   0.0000       0.167801         4.5661
  37   0.0000       0.169809         4.6207

MULLIKEN ATOMIC CHARGES
-----------------------
   0 C :   -0.284285
   1 H :    0.166829
   2 H :    0.166401
   3 H :    0.207306
   4 C :   -0.103010
   5 N :   -0.153237
   6 C :   -0.285987
   7 H :    0.206230
   8 H :    0.160180
   9 H :    0.167439
  10 C :   -0.100505
  11 N :   -0.147353
  12 C :   -0.282525
  13 H :    0.173036
  14 H :    0.169796
  15 H :    0.172697
  16 C :   -0.144832
  17 N :   -0.088178
Sum of atomic charges:   -0.0000000

LOEWDIN ATOMIC CHARGES
----------------------
   0 C :   -0.281708
   1 H :    0.151651
   2 H :    0.151861
   3 H :    0.157672
   4 C :   -0.207670
   5 N :    0.027473
   6 C :   -0.283034
   7 H :    0.157004
   8 H :    0.151131
   9 H :    0.149829
  10 C :   -0.207584
  11 N :    0.033375
  12 C :   -0.284614
  13 H :    0.151594
  14 H :    0.150652
  15 H :    0.152951
  16 C :   -0.219196
  17 N :    0.048610

  Mayer bond orders larger than 0.100000
B(  0-C ,  1-H ) :   0.9158 B(  0-C ,  2-H ) :   0.9146 B(  0-C ,  3-H ) :   0.9007
B(  0-C ,  4-C ) :   0.9015 B(  4-C ,  5-N ) :   2.7735 B(  6-C ,  7-H ) :   0.9013
B(  6-C ,  8-H ) :   0.9161 B(  6-C ,  9-H ) :   0.9167 B(  6-C , 10-C ) :   0.9024
B( 10-C , 11-N ) :   2.7662 B( 12-C , 13-H ) :   0.9160 B( 12-C , 14-H ) :   0.9177
B( 12-C , 15-H ) :   0.9171 B( 12-C , 16-C ) :   0.9021 B( 16-C , 17-N ) :   2.8354

MP2 TOTAL ENERGY:     -397.458914925 Eh
FINAL SINGLE POINT ENERGY      -397.458914925055

DIPOLE MOMENT
-------------
                                X             Y             Z
Electronic contribution:      0.01021       0.18397       3.18094
Nuclear contribution   :     -0.03236      -0.28594      -4.65941
                        -----------------------------------------
Total Dipole Moment    :     -0.02215      -0.10197      -1.47846
                        -----------------------------------------
Magnitude (a.u.)       :      1.48214
Magnitude (Debye)      :      3.76731

Rotational constants in cm-1:     0.052171     0.010579     0.010141
Rotational constants in MHz :  1564.035296   317.159426   304.011380

                             ****ORCA TERMINATED NORMALLY****
TOTAL RUN TIME: 0 days 0 hours 2 minutes 56 seconds 57 msec
