                         Program Version 4.2.0 -  RELEASE  -
|  1> # 12meoh.boyd.etal.mol5,6,9
|  2> ! MP2 def2-TZVP EnGrad TightSCF
|  3>
|  4> %pal
|  5>     nprocs 6
|  6> end
|  7>
|  8> %maxcore 8000
|  9>
| 10> %scf
| 11>     ConvForced true
| 12> end
| 13>
| 14> *xyz 0 1
| 15> O  -0.662721750   1.449094618  -1.383082065
| 16> H   0.064188300   2.119867608  -1.465650660
| 17> C  -0.353319239   0.341218776  -2.229326771
| 18> H  -1.072358530  -0.454743281  -2.019906495
| 19> H   0.657636746  -0.044472139  -2.042736771
| 20> H  -0.434616607   0.624733901  -3.287793021
| 21> O   2.622209273  -1.703002590  -1.445859723
| 22> H   1.828551432  -1.986513781  -0.909754968
| 23> C   2.781117675  -2.615822239  -2.525472890
| 24> H   3.691063626  -2.339003544  -3.065143454
| 25> H   1.934727323  -2.559520367  -3.223226661
| 26> H   2.879948338  -3.653846211  -2.177750170
| 27> O   1.390610024   3.194080770  -1.536658882
| 28> H   2.162932299   2.881562730  -0.993525056
| 29> C   1.202977189   4.580367182  -1.302880219
| 30> H   0.374773115   4.915764831  -1.934164643
| 31> H   2.098649340   5.157710875  -1.570472348
| 32> H   0.950320401   4.800436015  -0.254328827
| 33> *
| 34>
| 35>                          ****END OF INPUT****

CARTESIAN COORDINATES (ANGSTROEM)
---------------------------------
  O     -0.662722    1.449095   -1.383082
  H      0.064188    2.119868   -1.465651
  C     -0.353319    0.341219   -2.229327
  H     -1.072359   -0.454743   -2.019906
  H      0.657637   -0.044472   -2.042737
  H     -0.434617    0.624734   -3.287793
  O      2.622209   -1.703003   -1.445860
  H      1.828551   -1.986514   -0.909755
  C      2.781118   -2.615822   -2.525473
  H      3.691064   -2.339004   -3.065143
  H      1.934727   -2.559520   -3.223227
  H      2.879948   -3.653846   -2.177750
  O      1.390610    3.194081   -1.536659
  H      2.162932    2.881563   -0.993525
  C      1.202977    4.580367   -1.302880
  H      0.374773    4.915765   -1.934165
  H      2.098649    5.157711   -1.570472
  H      0.950320    4.800436   -0.254329

 Total Charge           Charge          ....    0
 Multiplicity           Mult            ....    1
 Number of Electrons    NEL             ....   54
 Basis Dimension        Dim             ....  258

ORBITAL ENERGIES
----------------

  NO   OCC          E(Eh)            E(eV)
   0   2.0000     -20.584751      -560.1396
   1   2.0000     -20.560515      -559.4801
   2   2.0000     -20.508669      -558.0693
   3   2.0000     -11.286179      -307.1126
   4   2.0000     -11.273133      -306.7575
   5   2.0000     -11.243860      -305.9610
   6   2.0000      -1.379073       -37.5265
   7   2.0000      -1.348683       -36.6995
   8   2.0000      -1.304373       -35.4938
   9   2.0000      -0.937874       -25.5209
  10   2.0000      -0.921167       -25.0662
  11   2.0000      -0.891813       -24.2675
  12   2.0000      -0.711666       -19.3654
  13   2.0000      -0.683334       -18.5945
  14   2.0000      -0.666834       -18.1455
  15   2.0000      -0.632108       -17.2005
  16   2.0000      -0.619891       -16.8681
  17   2.0000      -0.605617       -16.4797
  18   2.0000      -0.593985       -16.1632
  19   2.0000      -0.584778       -15.9126
  20   2.0000      -0.557436       -15.1686
  21   2.0000      -0.523323       -14.2403
  22   2.0000      -0.502111       -13.6631
  23   2.0000      -0.479892       -13.0585
  24   2.0000      -0.456194       -12.4137
  25   2.0000      -0.449296       -12.2260
  26   2.0000      -0.411405       -11.1949
  27   0.0000       0.122518         3.3339
  28   0.0000       0.133511         3.6330
  29   0.0000       0.164157         4.4669
  30   0.0000       0.173351         4.7171
  31   0.0000       0.190887         5.1943

MULLIKEN ATOMIC CHARGES
-----------------------
   0 O :   -0.541672
   1 H :    0.347674
   2 C :   -0.172903
   3 H :    0.111869
   4 H :    0.105852
   5 H :    0.097597
   6 O :   -0.497679
   7 H :    0.329922
   8 C :   -0.175386
   9 H :    0.128649
  10 H :    0.113803
  11 H :    0.114420
  12 O :   -0.521929
  13 H :    0.345536
  14 C :   -0.176495
  15 H :    0.142760
  16 H :    0.122962
  17 H :    0.125021
Sum of atomic charges:    0.0000000

LOEWDIN ATOMIC CHARGES
----------------------
   0 O :   -0.129292
   1 H :    0.158423
   2 C :   -0.396493
   3 H :    0.101934
   4 H :    0.093075
   5 H :    0.092554
   6 O :   -0.106942
   7 H :    0.193542
   8 C :   -0.383263
   9 H :    0.110217
  10 H :    0.095781
  11 H :    0.096855
  12 O :   -0.073536
  13 H :    0.201336
  14 C :   -0.375470
  15 H :    0.116086
  16 H :    0.103100
  17 H :    0.102090

  Mayer bond orders larger than 0.100000
B(  0-O ,  1-H ) :   0.7922 B(  0-O ,  2-C ) :   0.9356 B(  2-C ,  3-H ) :   0.9378
B(  2-C ,  4-H ) :   0.9370 B(  2-C ,  5-H ) :   0.9373 B(  6-O ,  7-H ) :   0.8356
B(  6-O ,  8-C ) :   0.9194 B(  8-C ,  9-H ) :   0.9385 B(  8-C , 10-H ) :   0.9375
B(  8-C , 11-H ) :   0.9392 B( 12-O , 13-H ) :   0.8249 B( 12-O , 14-C ) :   0.8733
B( 14-C , 15-H ) :   0.9393 B( 14-C , 16-H ) :   0.9346 B( 14-C , 17-H ) :   0.9380

MP2 TOTAL ENERGY:     -346.531034220 Eh
FINAL SINGLE POINT ENERGY      -346.531034219598

DIPOLE MOMENT
-------------
                                X             Y             Z
Electronic contribution:     -0.17914       1.10513       2.08367
Nuclear contribution   :      1.02606      -0.98821      -2.10375
                        -----------------------------------------
Total Dipole Moment    :      0.84692       0.11692      -0.02008
                        -----------------------------------------
Magnitude (a.u.)       :      0.85519
Magnitude (Debye)      :      2.17372

Rotational constants in cm-1:     0.113820     0.024475     0.021053
Rotational constants in MHz :  3412.245700   733.735020   631.138710

                             ****ORCA TERMINATED NORMALLY****
TOTAL RUN TIME: 0 days 0 hours 1 minutes 9 seconds 728 msec
