                         Program Version 4.2.0 -  RELEASE  -
|  1> # 12mecn.remya.etal.2.mol2,11
|  2> ! MP2 def2-TZVP EnGrad TightSCF
|  3>
|  4> %pal
|  5>     nprocs 6
|  6> end
|  7>
|  8> %maxcore 8000
|  9>
| 10> %scf
| 11>     ConvForced true
| 12> end
| 13>
| 14> *xyz 0 1
| 15> C  -4.219070000  -3.477410000  -1.501740000
| 16> H  -3.251530000  -3.803540000  -1.893830000
| 17> H  -4.452920000  -2.481700000  -1.890840000
| 18> H  -4.992170000  -4.178130000  -1.824640000
| 19> C  -4.154550000  -3.418790000  -0.058340000
| 20> N  -4.091140000  -3.354840000   1.104432000
| 21> C   4.214163000   3.378139000   1.593627000
| 22> H   3.242643000   3.657109000   2.012358000
| 23> H   4.969258000   4.086643000   1.941290000
| 24> H   4.482966000   2.372549000   1.931698000
| 25> C   4.130759000   3.388436000   0.150192000
| 26> N   4.050180000   3.381449000  -1.013420000
| 27> *
| 28>
| 29>                          ****END OF INPUT****

CARTESIAN COORDINATES (ANGSTROEM)
---------------------------------
  C     -4.219070   -3.477410   -1.501740
  H     -3.251530   -3.803540   -1.893830
  H     -4.452920   -2.481700   -1.890840
  H     -4.992170   -4.178130   -1.824640
  C     -4.154550   -3.418790   -0.058340
  N     -4.091140   -3.354840    1.104432
  C      4.214163    3.378139    1.593627
  H      3.242643    3.657109    2.012358
  H      4.969258    4.086643    1.941290
  H      4.482966    2.372549    1.931698
  C      4.130759    3.388436    0.150192
  N      4.050180    3.381449   -1.013420

 Total Charge           Charge          ....    0
 Multiplicity           Mult            ....    1
 Number of Electrons    NEL             ....   44
 Basis Dimension        Dim             ....  222

ORBITAL ENERGIES
----------------

  NO   OCC          E(Eh)            E(eV)
   0   2.0000     -15.573168      -423.7675
   1   2.0000     -15.573146      -423.7668
   2   2.0000     -11.284947      -307.0790
   3   2.0000     -11.284907      -307.0779
   4   2.0000     -11.280234      -306.9508
   5   2.0000     -11.280211      -306.9501
   6   2.0000      -1.214881       -33.0586
   7   2.0000      -1.214732       -33.0545
   8   2.0000      -1.043544       -28.3963
   9   2.0000      -1.043453       -28.3938
  10   2.0000      -0.700402       -19.0589
  11   2.0000      -0.700378       -19.0583
  12   2.0000      -0.631666       -17.1885
  13   2.0000      -0.631636       -17.1877
  14   2.0000      -0.630970       -17.1696
  15   2.0000      -0.630730       -17.1630
  16   2.0000      -0.556116       -15.1327
  17   2.0000      -0.556047       -15.1308
  18   2.0000      -0.458005       -12.4629
  19   2.0000      -0.457846       -12.4586
  20   2.0000      -0.457834       -12.4583
  21   2.0000      -0.457721       -12.4552
  22   0.0000       0.119418         3.2495
  23   0.0000       0.119492         3.2515
  24   0.0000       0.171316         4.6617
  25   0.0000       0.171320         4.6619
  26   0.0000       0.171822         4.6755

MULLIKEN ATOMIC CHARGES
-----------------------
   0 C :   -0.280184
   1 H :    0.172687
   2 H :    0.172776
   3 H :    0.172066
   4 C :   -0.145657
   5 N :   -0.091687
   6 C :   -0.280296
   7 H :    0.172847
   8 H :    0.172066
   9 H :    0.172703
  10 C :   -0.145417
  11 N :   -0.091903
Sum of atomic charges:    0.0000000

LOEWDIN ATOMIC CHARGES
----------------------
   0 C :   -0.283802
   1 H :    0.152944
   2 H :    0.153319
   3 H :    0.151067
   4 C :   -0.219248
   5 N :    0.045721
   6 C :   -0.283910
   7 H :    0.153175
   8 H :    0.151057
   9 H :    0.153235
  10 C :   -0.219238
  11 N :    0.045682

  Mayer bond orders larger than 0.100000
B(  0-C ,  1-H ) :   0.9163 B(  0-C ,  2-H ) :   0.9163 B(  0-C ,  3-H ) :   0.9165
B(  0-C ,  4-C ) :   0.9022 B(  4-C ,  5-N ) :   2.8377 B(  6-C ,  7-H ) :   0.9162
B(  6-C ,  8-H ) :   0.9166 B(  6-C ,  9-H ) :   0.9162 B(  6-C , 10-C ) :   0.9023
B( 10-C , 11-N ) :   2.8375

MP2 TOTAL ENERGY:     -264.966537531 Eh
FINAL SINGLE POINT ENERGY      -264.966537531424

DIPOLE MOMENT
-------------
                                X             Y             Z
Electronic contribution:     -0.04053       0.14677      -0.00070
Nuclear contribution   :      0.06134      -0.22009       0.00119
                        -----------------------------------------
Total Dipole Moment    :      0.02081      -0.07332       0.00049
                        -----------------------------------------
Magnitude (a.u.)       :      0.07621
Magnitude (Debye)      :      0.19372

Rotational constants in cm-1:     0.155850     0.007100     0.006808
Rotational constants in MHz :  4672.254742   212.848663   204.112780

                             ****ORCA TERMINATED NORMALLY****
TOTAL RUN TIME: 0 days 0 hours 0 minutes 49 seconds 449 msec
