                         Program Version 4.2.0 -  RELEASE  -
|  1> # 12h2o.su.etal.mol0,1,4,6,7,8,10,11
|  2> ! MP2 def2-TZVP EnGrad TightSCF
|  3>
|  4> %pal
|  5>     nprocs 6
|  6> end
|  7>
|  8> %maxcore 8000
|  9>
| 10> %scf
| 11>     ConvForced true
| 12> end
| 13>
| 14> *xyz 0 1
| 15> O   1.794470000   0.923410000   2.768350000
| 16> H   2.338250000   1.359750000   3.430940000
| 17> H   0.879480000   1.303000000   2.865760000
| 18> O  -1.794470000  -0.923410000   2.768350000
| 19> H  -2.338250000  -1.359750000   3.430940000
| 20> H  -0.879480000  -1.303000000   2.865760000
| 21> O  -0.885520000   1.737840000   0.052730000
| 22> H  -1.032320000   2.090180000  -0.841890000
| 23> H  -1.284090000   0.839590000   0.017130000
| 24> O   1.737840000   0.885520000  -0.052730000
| 25> H   2.090180000   1.032320000   0.841890000
| 26> H   0.839590000   1.284090000  -0.017130000
| 27> O  -1.737840000  -0.885520000  -0.052730000
| 28> H  -2.090180000  -1.032320000   0.841890000
| 29> H  -0.839590000  -1.284090000  -0.017130000
| 30> O   1.752130000   0.741530000  -2.896280000
| 31> H   2.036450000   0.920500000  -1.984040000
| 32> H   0.921210000   1.242140000  -2.984230000
| 33> O  -0.923410000   1.794470000  -2.768350000
| 34> H  -1.359750000   2.338250000  -3.430940000
| 35> H  -1.303000000   0.879480000  -2.865760000
| 36> O  -0.741530000   1.752130000   2.896280000
| 37> H  -0.920500000   2.036450000   1.984040000
| 38> H  -1.242140000   0.921210000   2.984230000
| 39> *
| 40>
| 41>                          ****END OF INPUT****

CARTESIAN COORDINATES (ANGSTROEM)
---------------------------------
  O      1.794470    0.923410    2.768350
  H      2.338250    1.359750    3.430940
  H      0.879480    1.303000    2.865760
  O     -1.794470   -0.923410    2.768350
  H     -2.338250   -1.359750    3.430940
  H     -0.879480   -1.303000    2.865760
  O     -0.885520    1.737840    0.052730
  H     -1.032320    2.090180   -0.841890
  H     -1.284090    0.839590    0.017130
  O      1.737840    0.885520   -0.052730
  H      2.090180    1.032320    0.841890
  H      0.839590    1.284090   -0.017130
  O     -1.737840   -0.885520   -0.052730
  H     -2.090180   -1.032320    0.841890
  H     -0.839590   -1.284090   -0.017130
  O      1.752130    0.741530   -2.896280
  H      2.036450    0.920500   -1.984040
  H      0.921210    1.242140   -2.984230
  O     -0.923410    1.794470   -2.768350
  H     -1.359750    2.338250   -3.430940
  H     -1.303000    0.879480   -2.865760
  O     -0.741530    1.752130    2.896280
  H     -0.920500    2.036450    1.984040
  H     -1.242140    0.921210    2.984230

 Total Charge           Charge          ....    0
 Multiplicity           Mult            ....    1
 Number of Electrons    NEL             ....   80
 Basis Dimension        Dim             ....  344

ORBITAL ENERGIES
----------------

  NO   OCC          E(Eh)            E(eV)
   0   2.0000     -20.631170      -561.4027
   1   2.0000     -20.605136      -560.6943
   2   2.0000     -20.586273      -560.1810
   3   2.0000     -20.556313      -559.3657
   4   2.0000     -20.555799      -559.3517
   5   2.0000     -20.534397      -558.7693
   6   2.0000     -20.503672      -557.9333
   7   2.0000     -20.489469      -557.5468
   8   2.0000      -1.411790       -38.4168
   9   2.0000      -1.385783       -37.7091
  10   2.0000      -1.371226       -37.3130
  11   2.0000      -1.352968       -36.8161
  12   2.0000      -1.341813       -36.5126
  13   2.0000      -1.317846       -35.8604
  14   2.0000      -1.290853       -35.1259
  15   2.0000      -1.273590       -34.6561
  16   2.0000      -0.777031       -21.1441
  17   2.0000      -0.751067       -20.4376
  18   2.0000      -0.733912       -19.9708
  19   2.0000      -0.724376       -19.7113
  20   2.0000      -0.712945       -19.4002
  21   2.0000      -0.701087       -19.0776
  22   2.0000      -0.671503       -18.2725
  23   2.0000      -0.656046       -17.8519
  24   2.0000      -0.654198       -17.8016
  25   2.0000      -0.631463       -17.1830
  26   2.0000      -0.613860       -16.7040
  27   2.0000      -0.605918       -16.4879
  28   2.0000      -0.580800       -15.8044
  29   2.0000      -0.570732       -15.5304
  30   2.0000      -0.562617       -15.3096
  31   2.0000      -0.553556       -15.0630
  32   2.0000      -0.534045       -14.5321
  33   2.0000      -0.522657       -14.2222
  34   2.0000      -0.508330       -13.8324
  35   2.0000      -0.498358       -13.5610
  36   2.0000      -0.494221       -13.4484
  37   2.0000      -0.479930       -13.0596
  38   2.0000      -0.455648       -12.3988
  39   2.0000      -0.439224       -11.9519
  40   0.0000       0.082254         2.2382
  41   0.0000       0.108419         2.9502
  42   0.0000       0.143932         3.9166
  43   0.0000       0.159476         4.3396
  44   0.0000       0.176140         4.7930

MULLIKEN ATOMIC CHARGES
-----------------------
   0 O :   -0.744728
   1 H :    0.333667
   2 H :    0.370233
   3 O :   -0.726550
   4 H :    0.371424
   5 H :    0.380390
   6 O :   -0.749237
   7 H :    0.380552
   8 H :    0.358403
   9 O :   -0.750895
  10 H :    0.366677
  11 H :    0.341975
  12 O :   -0.706025
  13 H :    0.379234
  14 H :    0.360430
  15 O :   -0.730453
  16 H :    0.373137
  17 H :    0.333855
  18 O :   -0.713541
  19 H :    0.362053
  20 H :    0.375846
  21 O :   -0.715567
  22 H :    0.389433
  23 H :    0.359690
Sum of atomic charges:   -0.0000000

LOEWDIN ATOMIC CHARGES
----------------------
   0 O :   -0.346530
   1 H :    0.151819
   2 H :    0.142471
   3 O :   -0.288628
   4 H :    0.171405
   5 H :    0.195966
   6 O :   -0.302689
   7 H :    0.152044
   8 H :    0.141034
   9 O :   -0.352630
  10 H :    0.147323
  11 H :    0.135066
  12 O :   -0.297877
  13 H :    0.152788
  14 H :    0.179106
  15 O :   -0.359663
  16 H :    0.151312
  17 H :    0.136259
  18 O :   -0.286567
  19 H :    0.166892
  20 H :    0.193678
  21 O :   -0.285958
  22 H :    0.157003
  23 H :    0.146377

  Mayer bond orders larger than 0.100000
B(  0-O ,  1-H ) :   0.8522 B(  0-O ,  2-H ) :   0.7533 B(  2-H , 21-O ) :   0.1086
B(  3-O ,  4-H ) :   0.8279 B(  3-O ,  5-H ) :   0.8122 B(  6-O ,  7-H ) :   0.8042
B(  6-O ,  8-H ) :   0.7692 B(  9-O , 10-H ) :   0.8103 B(  9-O , 11-H ) :   0.7902
B( 12-O , 13-H ) :   0.8066 B( 12-O , 14-H ) :   0.8291 B( 15-O , 16-H ) :   0.8122
B( 15-O , 17-H ) :   0.8445 B( 18-O , 19-H ) :   0.8335 B( 18-O , 20-H ) :   0.8167
B( 21-O , 22-H ) :   0.7976 B( 21-O , 23-H ) :   0.8186

MP2 TOTAL ENERGY:     -610.585537723 Eh
FINAL SINGLE POINT ENERGY      -610.585537723098

DIPOLE MOMENT
-------------
                                X             Y             Z
Electronic contribution:     -0.47767      -0.10566      -0.00864
Nuclear contribution   :     -2.15372      -0.65269       1.40687
                        -----------------------------------------
Total Dipole Moment    :     -2.63138      -0.75834       1.39823
                        -----------------------------------------
Magnitude (a.u.)       :      3.07479
Magnitude (Debye)      :      7.81549

Rotational constants in cm-1:     0.037340     0.019512     0.015942
Rotational constants in MHz :  1119.431658   584.967949   477.929328

                             ****ORCA TERMINATED NORMALLY****
TOTAL RUN TIME: 0 days 0 hours 3 minutes 14 seconds 490 msec
