                         Program Version 4.2.0 -  RELEASE  -
|  1> ! MP2 def2-TZVP EnGrad TightSCF FrozenCore
|  2>
|  3> %pal
|  4>     nprocs 12
|  5> end
|  6>
|  7> %maxcore 8000
|  8>
|  9> %scf
| 10>     ConvForced true
| 11> end
| 12>
| 13> *xyz 0 1
| 14> O    -0.54558465       0.6450791857     0.9122934897
| 15> H    -0.5038940523    -0.2759790594     0.5305299552
| 16> C    -0.1384350922     0.5678453849     2.284331612
| 17> H    -0.1321666569     1.5851633703     2.6840482207
| 18> H     0.8655400188     0.1367446566     2.3553975044
| 19> H    -0.8397998818    -0.0402710286     2.8699956807
| 20> O     1.600841706      1.744492925     -0.4207260889
| 21> H     0.7497839517     1.5033820706     0.0160613134
| 22> C     1.3390356135     2.0529003779    -1.7818213405
| 23> H     2.2954371644     2.296026309     -2.253506463
| 24> H     0.6753164724     2.9236556174    -1.8809725036
| 25> H     0.8894854475     1.2093542367    -2.3274567127
| 26> O    -2.9690412072     0.2537401901    -0.464115667
| 27> H    -2.2987487161     0.6736891532     0.116132054
| 28> C    -4.1978673961     0.178024135      0.2485311758
| 29> H    -4.9214798506    -0.3171383071    -0.4044414536
| 30> H    -4.584386888      1.1762827492     0.4970821251
| 31> H    -4.1097716067    -0.4061673446     1.1762792885
| 32> O    -1.0218629686    -1.6772643781    -0.3008152727
| 33> H    -1.8707107087    -1.2715845218    -0.5840729061
| 34> C    -0.2353462284    -2.0088730812    -1.4459488601
| 35> H     0.799840314     -2.0869148684    -1.1072404527
| 36> H    -0.2957901873    -1.2327290701    -2.2221551046
| 37> H    -0.5570179683    -2.964652632     -1.881336285
| 38> O     2.4038924381    -0.7875322595     0.3853929988
| 39> H     2.2830956836     0.1140604749     0.0127578776
| 40> C     3.7851530727    -0.9955688026     0.607561297
| 41> H     3.9019037576    -1.9837592697     1.0640133146
| 42> H     4.2205884031    -0.2506989571     1.2923527611
| 43> H     4.3715729398    -0.9825569679    -0.3256271982
| 44> *
| 45>
| 46>                          ****END OF INPUT****

CARTESIAN COORDINATES (ANGSTROEM)
---------------------------------
  O     -0.545585    0.645079    0.912293
  H     -0.503894   -0.275979    0.530530
  C     -0.138435    0.567845    2.284332
  H     -0.132167    1.585163    2.684048
  H      0.865540    0.136745    2.355398
  H     -0.839800   -0.040271    2.869996
  O      1.600842    1.744493   -0.420726
  H      0.749784    1.503382    0.016061
  C      1.339036    2.052900   -1.781821
  H      2.295437    2.296026   -2.253506
  H      0.675316    2.923656   -1.880973
  H      0.889485    1.209354   -2.327457
  O     -2.969041    0.253740   -0.464116
  H     -2.298749    0.673689    0.116132
  C     -4.197867    0.178024    0.248531
  H     -4.921480   -0.317138   -0.404441
  H     -4.584387    1.176283    0.497082
  H     -4.109772   -0.406167    1.176279
  O     -1.021863   -1.677264   -0.300815
  H     -1.870711   -1.271585   -0.584073
  C     -0.235346   -2.008873   -1.445949
  H      0.799840   -2.086915   -1.107240
  H     -0.295790   -1.232729   -2.222155
  H     -0.557018   -2.964653   -1.881336
  O      2.403892   -0.787532    0.385393
  H      2.283096    0.114060    0.012758
  C      3.785153   -0.995569    0.607561
  H      3.901904   -1.983759    1.064013
  H      4.220588   -0.250699    1.292353
  H      4.371573   -0.982557   -0.325627

 Total Charge           Charge          ....    0
 Multiplicity           Mult            ....    1
 Number of Electrons    NEL             ....   90
 Basis Dimension        Dim             ....  430

ORBITAL ENERGIES
----------------

  NO   OCC          E(Eh)            E(eV)
   0   2.0000     -20.560857      -559.4894
   1   2.0000     -20.559879      -559.4628
   2   2.0000     -20.554988      -559.3297
   3   2.0000     -20.548028      -559.1403
   4   2.0000     -20.528862      -558.6187
   5   2.0000     -11.276440      -306.8475
   6   2.0000     -11.270184      -306.6773
   7   2.0000     -11.268955      -306.6439
   8   2.0000     -11.264195      -306.5143
   9   2.0000     -11.256709      -306.3106
  10   2.0000      -1.372939       -37.3596
  11   2.0000      -1.356918       -36.9236
  12   2.0000      -1.349710       -36.7275
  13   2.0000      -1.343574       -36.5605
  14   2.0000      -1.328506       -36.1505
  15   2.0000      -0.932629       -25.3781
  16   2.0000      -0.922070       -25.0908
  17   2.0000      -0.919703       -25.0264
  18   2.0000      -0.916604       -24.9421
  19   2.0000      -0.903571       -24.5874
  20   2.0000      -0.707007       -19.2386
  21   2.0000      -0.697135       -18.9700
  22   2.0000      -0.692521       -18.8445
  23   2.0000      -0.688651       -18.7391
  24   2.0000      -0.676941       -18.4205
  25   2.0000      -0.623556       -16.9678
  26   2.0000      -0.619159       -16.8482
  27   2.0000      -0.616743       -16.7824
  28   2.0000      -0.611413       -16.6374
  29   2.0000      -0.600424       -16.3384
  30   2.0000      -0.599752       -16.3201
  31   2.0000      -0.592118       -16.1123
  32   2.0000      -0.589385       -16.0380
  33   2.0000      -0.587145       -15.9770
  34   2.0000      -0.572605       -15.5814
  35   2.0000      -0.519015       -14.1231
  36   2.0000      -0.513669       -13.9776
  37   2.0000      -0.501445       -13.6450
  38   2.0000      -0.493630       -13.4324
  39   2.0000      -0.482928       -13.1411
  40   2.0000      -0.458724       -12.4825
  41   2.0000      -0.450135       -12.2488
  42   2.0000      -0.446756       -12.1568
  43   2.0000      -0.441725       -12.0200
  44   2.0000      -0.427252       -11.6261
  45   0.0000       0.131093         3.5672
  46   0.0000       0.144172         3.9231
  47   0.0000       0.156723         4.2646
  48   0.0000       0.174059         4.7364
  49   0.0000       0.178897         4.8680

MULLIKEN ATOMIC CHARGES
-----------------------
   0 O :   -0.623882
   1 H :    0.396740
   2 C :   -0.180895
   3 H :    0.130802
   4 H :    0.150406
   5 H :    0.122117
   6 O :   -0.544349
   7 H :    0.367483
   8 C :   -0.171266
   9 H :    0.129137
  10 H :    0.121311
  11 H :    0.105174
  12 O :   -0.545366
  13 H :    0.357953
  14 C :   -0.177718
  15 H :    0.130661
  16 H :    0.121605
  17 H :    0.118127
  18 O :   -0.545809
  19 H :    0.358886
  20 C :   -0.198043
  21 H :    0.164203
  22 H :    0.111916
  23 H :    0.119504
  24 O :   -0.530284
  25 H :    0.349885
  26 C :   -0.171939
  27 H :    0.120683
  28 H :    0.108567
  29 H :    0.104393
Sum of atomic charges:   -0.0000000

LOEWDIN ATOMIC CHARGES
----------------------
   0 O :   -0.101509
   1 H :    0.168882
   2 C :   -0.375680
   3 H :    0.109135
   4 H :    0.107658
   5 H :    0.102843
   6 O :   -0.088923
   7 H :    0.165719
   8 C :   -0.387722
   9 H :    0.109254
  10 H :    0.102028
  11 H :    0.095146
  12 O :   -0.092123
  13 H :    0.168760
  14 C :   -0.381829
  15 H :    0.110243
  16 H :    0.101938
  17 H :    0.098984
  18 O :   -0.079370
  19 H :    0.168390
  20 C :   -0.379948
  21 H :    0.113595
  22 H :    0.097527
  23 H :    0.100744
  24 O :   -0.096669
  25 H :    0.163049
  26 C :   -0.397561
  27 H :    0.106335
  28 H :    0.096444
  29 H :    0.094661

  Mayer bond orders larger than 0.100000
B(  0-O ,  1-H ) :   0.7131 B(  0-O ,  2-C ) :   0.8477 B(  1-H , 18-O ) :   0.1088
B(  2-C ,  3-H ) :   0.9414 B(  2-C ,  4-H ) :   0.9315 B(  2-C ,  5-H ) :   0.9386
B(  6-O ,  7-H ) :   0.7744 B(  6-O ,  8-C ) :   0.8968 B(  8-C ,  9-H ) :   0.9432
B(  8-C , 10-H ) :   0.9415 B(  8-C , 11-H ) :   0.9335 B( 12-O , 13-H ) :   0.7903
B( 12-O , 14-C ) :   0.8936 B( 14-C , 15-H ) :   0.9417 B( 14-C , 16-H ) :   0.9392
B( 14-C , 17-H ) :   0.9354 B( 18-O , 19-H ) :   0.7836 B( 18-O , 20-C ) :   0.8770
B( 20-C , 21-H ) :   0.9298 B( 20-C , 22-H ) :   0.9386 B( 20-C , 23-H ) :   0.9373
B( 24-O , 25-H ) :   0.7709 B( 24-O , 26-C ) :   0.9272 B( 26-C , 27-H ) :   0.9427
B( 26-C , 28-H ) :   0.9368 B( 26-C , 29-H ) :   0.9389

MP2 TOTAL ENERGY:     -577.594070776 Eh
FINAL SINGLE POINT ENERGY      -577.594070775505

DIPOLE MOMENT
-------------
                                X             Y             Z
Electronic contribution:     -1.47272       0.36526       0.35848
Nuclear contribution   :      0.98162      -0.20181      -0.39078
                        -----------------------------------------
Total Dipole Moment    :     -0.49110       0.16345      -0.03230
                        -----------------------------------------
Magnitude (a.u.)       :      0.51860
Magnitude (Debye)      :      1.31817

Rotational constants in cm-1:     0.035465     0.016111     0.015162
Rotational constants in MHz :  1063.200790   482.999019   454.554374

                             ****ORCA TERMINATED NORMALLY****
TOTAL RUN TIME: 0 days 0 hours 10 minutes 35 seconds 971 msec
