                         Program Version 4.2.0 -  RELEASE  -
|  1> # 12h2o.su.etal.mol1,2,3,6,7,11
|  2> ! MP2 def2-TZVP EnGrad TightSCF
|  3>
|  4> %pal
|  5>     nprocs 6
|  6> end
|  7>
|  8> %maxcore 8000
|  9>
| 10> %scf
| 11>     ConvForced true
| 12> end
| 13>
| 14> *xyz 0 1
| 15> O  -1.794470000  -0.923410000   2.768350000
| 16> H  -2.338250000  -1.359750000   3.430940000
| 17> H  -0.879480000  -1.303000000   2.865760000
| 18> O   0.923410000  -1.794470000  -2.768350000
| 19> H   1.359750000  -2.338250000  -3.430940000
| 20> H   1.303000000  -0.879480000  -2.865760000
| 21> O  -1.752130000  -0.741530000  -2.896280000
| 22> H  -2.036450000  -0.920500000  -1.984040000
| 23> H  -0.921210000  -1.242140000  -2.984230000
| 24> O   1.737840000   0.885520000  -0.052730000
| 25> H   2.090180000   1.032320000   0.841890000
| 26> H   0.839590000   1.284090000  -0.017130000
| 27> O  -1.737840000  -0.885520000  -0.052730000
| 28> H  -2.090180000  -1.032320000   0.841890000
| 29> H  -0.839590000  -1.284090000  -0.017130000
| 30> O  -0.741530000   1.752130000   2.896280000
| 31> H  -0.920500000   2.036450000   1.984040000
| 32> H  -1.242140000   0.921210000   2.984230000
| 33> *
| 34>
| 35>                          ****END OF INPUT****

CARTESIAN COORDINATES (ANGSTROEM)
---------------------------------
  O     -1.794470   -0.923410    2.768350
  H     -2.338250   -1.359750    3.430940
  H     -0.879480   -1.303000    2.865760
  O      0.923410   -1.794470   -2.768350
  H      1.359750   -2.338250   -3.430940
  H      1.303000   -0.879480   -2.865760
  O     -1.752130   -0.741530   -2.896280
  H     -2.036450   -0.920500   -1.984040
  H     -0.921210   -1.242140   -2.984230
  O      1.737840    0.885520   -0.052730
  H      2.090180    1.032320    0.841890
  H      0.839590    1.284090   -0.017130
  O     -1.737840   -0.885520   -0.052730
  H     -2.090180   -1.032320    0.841890
  H     -0.839590   -1.284090   -0.017130
  O     -0.741530    1.752130    2.896280
  H     -0.920500    2.036450    1.984040
  H     -1.242140    0.921210    2.984230

 Total Charge           Charge          ....    0
 Multiplicity           Mult            ....    1
 Number of Electrons    NEL             ....   60
 Basis Dimension        Dim             ....  258

ORBITAL ENERGIES
----------------

  NO   OCC          E(Eh)            E(eV)
   0   2.0000     -20.626514      -561.2760
   1   2.0000     -20.577136      -559.9323
   2   2.0000     -20.567454      -559.6689
   3   2.0000     -20.560893      -559.4903
   4   2.0000     -20.551593      -559.2373
   5   2.0000     -20.494588      -557.6861
   6   2.0000      -1.406657       -38.2771
   7   2.0000      -1.354840       -36.8671
   8   2.0000      -1.343385       -36.5554
   9   2.0000      -1.342178       -36.5225
  10   2.0000      -1.333778       -36.2940
  11   2.0000      -1.280008       -34.8308
  12   2.0000      -0.772338       -21.0164
  13   2.0000      -0.721810       -19.6415
  14   2.0000      -0.713001       -19.4017
  15   2.0000      -0.705568       -19.1995
  16   2.0000      -0.704079       -19.1590
  17   2.0000      -0.657697       -17.8968
  18   2.0000      -0.643041       -17.4980
  19   2.0000      -0.601110       -16.3570
  20   2.0000      -0.590879       -16.0786
  21   2.0000      -0.583652       -15.8820
  22   2.0000      -0.571697       -15.5567
  23   2.0000      -0.553836       -15.0707
  24   2.0000      -0.530018       -14.4225
  25   2.0000      -0.511929       -13.9303
  26   2.0000      -0.509496       -13.8641
  27   2.0000      -0.499467       -13.5912
  28   2.0000      -0.498109       -13.5542
  29   2.0000      -0.444766       -12.1027
  30   0.0000       0.079211         2.1554
  31   0.0000       0.114516         3.1161
  32   0.0000       0.131807         3.5866
  33   0.0000       0.153966         4.1896
  34   0.0000       0.175487         4.7753

MULLIKEN ATOMIC CHARGES
-----------------------
   0 O :   -0.714244
   1 H :    0.368920
   2 H :    0.369114
   3 O :   -0.699064
   4 H :    0.348777
   5 H :    0.368734
   6 O :   -0.729115
   7 H :    0.364295
   8 H :    0.340014
   9 O :   -0.685912
  10 H :    0.342611
  11 H :    0.341736
  12 O :   -0.711745
  13 H :    0.367685
  14 H :    0.340614
  15 O :   -0.700867
  16 H :    0.330431
  17 H :    0.358017
Sum of atomic charges:   -0.0000000

LOEWDIN ATOMIC CHARGES
----------------------
   0 O :   -0.286697
   1 H :    0.170110
   2 H :    0.191417
   3 O :   -0.312919
   4 H :    0.161685
   5 H :    0.190783
   6 O :   -0.358538
   7 H :    0.148349
   8 H :    0.139779
   9 O :   -0.337968
  10 H :    0.166760
  11 H :    0.170250
  12 O :   -0.324128
  13 H :    0.149309
  14 H :    0.169040
  15 O :   -0.342870
  16 H :    0.158962
  17 H :    0.146677

  Mayer bond orders larger than 0.100000
B(  0-O ,  1-H ) :   0.8292 B(  0-O ,  2-H ) :   0.8218 B(  3-O ,  4-H ) :   0.8438
B(  3-O ,  5-H ) :   0.8238 B(  6-O ,  7-H ) :   0.8270 B(  6-O ,  8-H ) :   0.8319
B(  9-O , 10-H ) :   0.8485 B(  9-O , 11-H ) :   0.8435 B( 12-O , 13-H ) :   0.8160
B( 12-O , 14-H ) :   0.8400 B( 15-O , 16-H ) :   0.8551 B( 15-O , 17-H ) :   0.8234

MP2 TOTAL ENERGY:     -457.908854611 Eh
FINAL SINGLE POINT ENERGY      -457.908854610780

DIPOLE MOMENT
-------------
                                X             Y             Z
Electronic contribution:     -0.07508       0.02054       0.11038
Nuclear contribution   :      0.87744      -1.39079       1.54856
                        -----------------------------------------
Total Dipole Moment    :      0.80236      -1.37025       1.65894
                        -----------------------------------------
Magnitude (a.u.)       :      2.29640
Magnitude (Debye)      :      5.83698

Rotational constants in cm-1:     0.055505     0.023320     0.018997
Rotational constants in MHz :  1664.007634   699.128134   569.512381

                             ****ORCA TERMINATED NORMALLY****
TOTAL RUN TIME: 0 days 0 hours 0 minutes 53 seconds 779 msec
