                         Program Version 4.2.0 -  RELEASE  -
|  1> # 12h2o.su.etal.mol0,1,3,6,7,8,10,11
|  2> ! MP2 def2-TZVP EnGrad TightSCF
|  3>
|  4> %pal
|  5>     nprocs 6
|  6> end
|  7>
|  8> %maxcore 8000
|  9>
| 10> %scf
| 11>     ConvForced true
| 12> end
| 13>
| 14> *xyz 0 1
| 15> O   1.794470000   0.923410000   2.768350000
| 16> H   2.338250000   1.359750000   3.430940000
| 17> H   0.879480000   1.303000000   2.865760000
| 18> O  -1.794470000  -0.923410000   2.768350000
| 19> H  -2.338250000  -1.359750000   3.430940000
| 20> H  -0.879480000  -1.303000000   2.865760000
| 21> O  -1.752130000  -0.741530000  -2.896280000
| 22> H  -2.036450000  -0.920500000  -1.984040000
| 23> H  -0.921210000  -1.242140000  -2.984230000
| 24> O   1.737840000   0.885520000  -0.052730000
| 25> H   2.090180000   1.032320000   0.841890000
| 26> H   0.839590000   1.284090000  -0.017130000
| 27> O  -1.737840000  -0.885520000  -0.052730000
| 28> H  -2.090180000  -1.032320000   0.841890000
| 29> H  -0.839590000  -1.284090000  -0.017130000
| 30> O   1.752130000   0.741530000  -2.896280000
| 31> H   2.036450000   0.920500000  -1.984040000
| 32> H   0.921210000   1.242140000  -2.984230000
| 33> O  -0.923410000   1.794470000  -2.768350000
| 34> H  -1.359750000   2.338250000  -3.430940000
| 35> H  -1.303000000   0.879480000  -2.865760000
| 36> O  -0.741530000   1.752130000   2.896280000
| 37> H  -0.920500000   2.036450000   1.984040000
| 38> H  -1.242140000   0.921210000   2.984230000
| 39> *
| 40>
| 41>                          ****END OF INPUT****

CARTESIAN COORDINATES (ANGSTROEM)
---------------------------------
  O      1.794470    0.923410    2.768350
  H      2.338250    1.359750    3.430940
  H      0.879480    1.303000    2.865760
  O     -1.794470   -0.923410    2.768350
  H     -2.338250   -1.359750    3.430940
  H     -0.879480   -1.303000    2.865760
  O     -1.752130   -0.741530   -2.896280
  H     -2.036450   -0.920500   -1.984040
  H     -0.921210   -1.242140   -2.984230
  O      1.737840    0.885520   -0.052730
  H      2.090180    1.032320    0.841890
  H      0.839590    1.284090   -0.017130
  O     -1.737840   -0.885520   -0.052730
  H     -2.090180   -1.032320    0.841890
  H     -0.839590   -1.284090   -0.017130
  O      1.752130    0.741530   -2.896280
  H      2.036450    0.920500   -1.984040
  H      0.921210    1.242140   -2.984230
  O     -0.923410    1.794470   -2.768350
  H     -1.359750    2.338250   -3.430940
  H     -1.303000    0.879480   -2.865760
  O     -0.741530    1.752130    2.896280
  H     -0.920500    2.036450    1.984040
  H     -1.242140    0.921210    2.984230

 Total Charge           Charge          ....    0
 Multiplicity           Mult            ....    1
 Number of Electrons    NEL             ....   80
 Basis Dimension        Dim             ....  344

ORBITAL ENERGIES
----------------

  NO   OCC          E(Eh)            E(eV)
   0   2.0000     -20.639823      -561.6381
   1   2.0000     -20.594114      -560.3943
   2   2.0000     -20.581181      -560.0424
   3   2.0000     -20.562652      -559.5382
   4   2.0000     -20.555468      -559.3427
   5   2.0000     -20.544067      -559.0325
   6   2.0000     -20.527098      -558.5707
   7   2.0000     -20.484321      -557.4067
   8   2.0000      -1.420324       -38.6490
   9   2.0000      -1.383191       -37.6385
  10   2.0000      -1.364206       -37.1219
  11   2.0000      -1.349989       -36.7351
  12   2.0000      -1.340765       -36.4841
  13   2.0000      -1.323854       -36.0239
  14   2.0000      -1.310563       -35.6622
  15   2.0000      -1.269340       -34.5405
  16   2.0000      -0.785905       -21.3856
  17   2.0000      -0.745127       -20.2759
  18   2.0000      -0.734529       -19.9875
  19   2.0000      -0.723769       -19.6947
  20   2.0000      -0.709983       -19.3196
  21   2.0000      -0.694515       -18.8987
  22   2.0000      -0.693404       -18.8685
  23   2.0000      -0.661106       -17.9896
  24   2.0000      -0.645610       -17.5680
  25   2.0000      -0.629199       -17.1214
  26   2.0000      -0.614061       -16.7094
  27   2.0000      -0.593375       -16.1465
  28   2.0000      -0.587223       -15.9792
  29   2.0000      -0.570380       -15.5208
  30   2.0000      -0.567222       -15.4349
  31   2.0000      -0.550952       -14.9922
  32   2.0000      -0.530011       -14.4223
  33   2.0000      -0.527546       -14.3553
  34   2.0000      -0.515283       -14.0216
  35   2.0000      -0.502171       -13.6648
  36   2.0000      -0.497756       -13.5446
  37   2.0000      -0.487943       -13.2776
  38   2.0000      -0.472338       -12.8530
  39   2.0000      -0.434796       -11.8314
  40   0.0000       0.071763         1.9528
  41   0.0000       0.116885         3.1806
  42   0.0000       0.136140         3.7046
  43   0.0000       0.145898         3.9701
  44   0.0000       0.163290         4.4434

MULLIKEN ATOMIC CHARGES
-----------------------
   0 O :   -0.743801
   1 H :    0.341076
   2 H :    0.367430
   3 O :   -0.725337
   4 H :    0.373085
   5 H :    0.379390
   6 O :   -0.702922
   7 H :    0.384683
   8 H :    0.354485
   9 O :   -0.713913
  10 H :    0.374341
  11 H :    0.326618
  12 O :   -0.716833
  13 H :    0.373879
  14 H :    0.344315
  15 O :   -0.740925
  16 H :    0.365604
  17 H :    0.345551
  18 O :   -0.740889
  19 H :    0.333244
  20 H :    0.382868
  21 O :   -0.697394
  22 H :    0.359061
  23 H :    0.376382
Sum of atomic charges:    0.0000000

LOEWDIN ATOMIC CHARGES
----------------------
   0 O :   -0.344316
   1 H :    0.155571
   2 H :    0.141603
   3 O :   -0.287936
   4 H :    0.172396
   5 H :    0.195487
   6 O :   -0.277778
   7 H :    0.158029
   8 H :    0.172507
   9 O :   -0.327344
  10 H :    0.151882
  11 H :    0.161794
  12 O :   -0.324461
  13 H :    0.152165
  14 H :    0.171957
  15 O :   -0.363327
  16 H :    0.148062
  17 H :    0.140046
  18 O :   -0.342929
  19 H :    0.151874
  20 H :    0.145821
  21 O :   -0.276765
  22 H :    0.172007
  23 H :    0.153656

  Mayer bond orders larger than 0.100000
B(  0-O ,  1-H ) :   0.8483 B(  0-O ,  2-H ) :   0.7607 B(  3-O ,  4-H ) :   0.8268
B(  3-O ,  5-H ) :   0.8133 B(  6-O ,  7-H ) :   0.8018 B(  6-O ,  8-H ) :   0.8352
B(  9-O , 10-H ) :   0.8018 B(  9-O , 11-H ) :   0.8466 B( 12-O , 13-H ) :   0.8122
B( 12-O , 14-H ) :   0.8376 B( 15-O , 16-H ) :   0.8245 B( 15-O , 17-H ) :   0.8198
B( 18-O , 19-H ) :   0.8527 B( 18-O , 20-H ) :   0.7574 B( 21-O , 22-H ) :   0.8356
B( 21-O , 23-H ) :   0.8033

MP2 TOTAL ENERGY:     -610.574760395 Eh
FINAL SINGLE POINT ENERGY      -610.574760394574

DIPOLE MOMENT
-------------
                                X             Y             Z
Electronic contribution:     -0.45012      -0.23638       0.30285
Nuclear contribution   :     -1.24480      -0.76395       2.86726
                        -----------------------------------------
Total Dipole Moment    :     -1.69492      -1.00033       3.17011
                        -----------------------------------------
Magnitude (a.u.)       :      3.73136
Magnitude (Debye)      :      9.48436

Rotational constants in cm-1:     0.032170     0.017203     0.013099
Rotational constants in MHz :   964.420967   515.738374   392.705687

                             ****ORCA TERMINATED NORMALLY****
TOTAL RUN TIME: 0 days 0 hours 2 minutes 47 seconds 573 msec
