                         Program Version 4.2.0 -  RELEASE  -
|  1> ! MP2 def2-TZVP EnGrad TightSCF FrozenCore
|  2>
|  3> %pal
|  4>     nprocs 8
|  5> end
|  6>
|  7> %maxcore 8000
|  8>
|  9> %scf
| 10>     ConvForced true
| 11> end
| 12>
| 13> *xyz 0 1
| 14> O  -1.320198601  -1.380390210  -0.358727797
| 15> H  -1.738398601  -1.594990210  -1.201527797
| 16> H  -1.483398601  -0.416890210  -0.235227797
| 17> O   1.405201399  -1.341990210  -0.003327797
| 18> H   0.447601399  -1.480790210  -0.188027797
| 19> H   1.617101399  -1.979090210   0.689872203
| 20> O   1.309001399   1.370509790   0.430672203
| 21> H   1.467201399   0.402609790   0.338572203
| 22> H   1.950901399   1.782309790  -0.160727797
| 23> O  -1.393998601   1.351909790  -0.068627797
| 24> H  -0.431598601   1.494909790   0.085072203
| 25> H  -1.829498601   1.791309790   0.672172203
| 26> *
| 27>
| 28>
| 29>                          ****END OF INPUT****

CARTESIAN COORDINATES (ANGSTROEM)
---------------------------------
  O     -1.320199   -1.380390   -0.358728
  H     -1.738399   -1.594990   -1.201528
  H     -1.483399   -0.416890   -0.235228
  O      1.405201   -1.341990   -0.003328
  H      0.447601   -1.480790   -0.188028
  H      1.617101   -1.979090    0.689872
  O      1.309001    1.370510    0.430672
  H      1.467201    0.402610    0.338572
  H      1.950901    1.782310   -0.160728
  O     -1.393999    1.351910   -0.068628
  H     -0.431599    1.494910    0.085072
  H     -1.829499    1.791310    0.672172

 Total Charge           Charge          ....    0
 Multiplicity           Mult            ....    1
 Number of Electrons    NEL             ....   40
 Basis Dimension        Dim             ....  172

ORBITAL ENERGIES
----------------

  NO   OCC          E(Eh)            E(eV)
   0   2.0000     -20.555228      -559.3362
   1   2.0000     -20.555222      -559.3360
   2   2.0000     -20.555210      -559.3357
   3   2.0000     -20.555204      -559.3355
   4   2.0000      -1.357202       -36.9313
   5   2.0000      -1.341790       -36.5119
   6   2.0000      -1.341776       -36.5116
   7   2.0000      -1.326647       -36.0999
   8   2.0000      -0.725867       -19.7518
   9   2.0000      -0.711756       -19.3679
  10   2.0000      -0.711711       -19.3667
  11   2.0000      -0.702596       -19.1186
  12   2.0000      -0.621486       -16.9115
  13   2.0000      -0.584340       -15.9007
  14   2.0000      -0.584327       -15.9003
  15   2.0000      -0.548231       -14.9181
  16   2.0000      -0.504139       -13.7183
  17   2.0000      -0.503173       -13.6920
  18   2.0000      -0.503162       -13.6917
  19   2.0000      -0.502463       -13.6727
  20   0.0000       0.124229         3.3805
  21   0.0000       0.158598         4.3157
  22   0.0000       0.158606         4.3159
  23   0.0000       0.177248         4.8232
  24   0.0000       0.296061         8.0562

MULLIKEN ATOMIC CHARGES
-----------------------
   0 O :   -0.730322
   1 H :    0.345387
   2 H :    0.384953
   3 O :   -0.730338
   4 H :    0.384948
   5 H :    0.345381
   6 O :   -0.730343
   7 H :    0.384945
   8 H :    0.345399
   9 O :   -0.730338
  10 H :    0.384936
  11 H :    0.345394
Sum of atomic charges:    0.0000000

LOEWDIN ATOMIC CHARGES
----------------------
   0 O :   -0.314064
   1 H :    0.161622
   2 H :    0.152449
   3 O :   -0.314137
   4 H :    0.152502
   5 H :    0.161635
   6 O :   -0.314151
   7 H :    0.152480
   8 H :    0.161658
   9 O :   -0.314168
  10 H :    0.152467
  11 H :    0.161708

  Mayer bond orders larger than 0.100000
B(  0-O ,  1-H ) :   0.8454 B(  0-O ,  2-H ) :   0.7645 B(  3-O ,  4-H ) :   0.7645
B(  3-O ,  5-H ) :   0.8454 B(  6-O ,  7-H ) :   0.7645 B(  6-O ,  8-H ) :   0.8454
B(  9-O , 10-H ) :   0.7645 B(  9-O , 11-H ) :   0.8454

MP2 TOTAL ENERGY:     -305.301692182 Eh
FINAL SINGLE POINT ENERGY      -305.301692181633

DIPOLE MOMENT
-------------
                                X             Y             Z
Electronic contribution:     -0.00005       0.00004      -0.00016
Nuclear contribution   :     -0.00008      -0.00058       0.00017
                        -----------------------------------------
Total Dipole Moment    :     -0.00014      -0.00054       0.00001
                        -----------------------------------------
Magnitude (a.u.)       :      0.00056
Magnitude (Debye)      :      0.00141

Rotational constants in cm-1:     0.119678     0.119630     0.060710
Rotational constants in MHz :  3587.866325  3586.416080  1820.038388

                             ****ORCA TERMINATED NORMALLY****
TOTAL RUN TIME: 0 days 0 hours 0 minutes 23 seconds 337 msec
