                         Program Version 4.2.0 -  RELEASE  -
|  1> # 12h2o.su.etal.mol2,3,5,6,7,8,10,11
|  2> ! MP2 def2-TZVP EnGrad TightSCF
|  3>
|  4> %pal
|  5>     nprocs 6
|  6> end
|  7>
|  8> %maxcore 8000
|  9>
| 10> %scf
| 11>     ConvForced true
| 12> end
| 13>
| 14> *xyz 0 1
| 15> O   0.923410000  -1.794470000  -2.768350000
| 16> H   1.359750000  -2.338250000  -3.430940000
| 17> H   1.303000000  -0.879480000  -2.865760000
| 18> O  -1.752130000  -0.741530000  -2.896280000
| 19> H  -2.036450000  -0.920500000  -1.984040000
| 20> H  -0.921210000  -1.242140000  -2.984230000
| 21> O   0.885520000  -1.737840000   0.052730000
| 22> H   1.284090000  -0.839590000   0.017130000
| 23> H   1.032320000  -2.090180000  -0.841890000
| 24> O   1.737840000   0.885520000  -0.052730000
| 25> H   2.090180000   1.032320000   0.841890000
| 26> H   0.839590000   1.284090000  -0.017130000
| 27> O  -1.737840000  -0.885520000  -0.052730000
| 28> H  -2.090180000  -1.032320000   0.841890000
| 29> H  -0.839590000  -1.284090000  -0.017130000
| 30> O   1.752130000   0.741530000  -2.896280000
| 31> H   2.036450000   0.920500000  -1.984040000
| 32> H   0.921210000   1.242140000  -2.984230000
| 33> O  -0.923410000   1.794470000  -2.768350000
| 34> H  -1.359750000   2.338250000  -3.430940000
| 35> H  -1.303000000   0.879480000  -2.865760000
| 36> O  -0.741530000   1.752130000   2.896280000
| 37> H  -0.920500000   2.036450000   1.984040000
| 38> H  -1.242140000   0.921210000   2.984230000
| 39> *
| 40>
| 41>                          ****END OF INPUT****

CARTESIAN COORDINATES (ANGSTROEM)
---------------------------------
  O      0.923410   -1.794470   -2.768350
  H      1.359750   -2.338250   -3.430940
  H      1.303000   -0.879480   -2.865760
  O     -1.752130   -0.741530   -2.896280
  H     -2.036450   -0.920500   -1.984040
  H     -0.921210   -1.242140   -2.984230
  O      0.885520   -1.737840    0.052730
  H      1.284090   -0.839590    0.017130
  H      1.032320   -2.090180   -0.841890
  O      1.737840    0.885520   -0.052730
  H      2.090180    1.032320    0.841890
  H      0.839590    1.284090   -0.017130
  O     -1.737840   -0.885520   -0.052730
  H     -2.090180   -1.032320    0.841890
  H     -0.839590   -1.284090   -0.017130
  O      1.752130    0.741530   -2.896280
  H      2.036450    0.920500   -1.984040
  H      0.921210    1.242140   -2.984230
  O     -0.923410    1.794470   -2.768350
  H     -1.359750    2.338250   -3.430940
  H     -1.303000    0.879480   -2.865760
  O     -0.741530    1.752130    2.896280
  H     -0.920500    2.036450    1.984040
  H     -1.242140    0.921210    2.984230

 Total Charge           Charge          ....    0
 Multiplicity           Mult            ....    1
 Number of Electrons    NEL             ....   80
 Basis Dimension        Dim             ....  344

ORBITAL ENERGIES
----------------

  NO   OCC          E(Eh)            E(eV)
   0   2.0000     -20.619812      -561.0936
   1   2.0000     -20.580091      -560.0127
   2   2.0000     -20.565323      -559.6109
   3   2.0000     -20.557625      -559.4014
   4   2.0000     -20.557594      -559.4006
   5   2.0000     -20.546677      -559.1035
   6   2.0000     -20.544335      -559.0398
   7   2.0000     -20.543408      -559.0146
   8   2.0000      -1.403137       -38.1813
   9   2.0000      -1.362811       -37.0840
  10   2.0000      -1.358995       -36.9801
  11   2.0000      -1.348466       -36.6936
  12   2.0000      -1.342515       -36.5317
  13   2.0000      -1.338635       -36.4261
  14   2.0000      -1.328393       -36.1474
  15   2.0000      -1.319198       -35.8972
  16   2.0000      -0.761149       -20.7119
  17   2.0000      -0.730728       -19.8841
  18   2.0000      -0.722130       -19.6501
  19   2.0000      -0.719781       -19.5862
  20   2.0000      -0.713530       -19.4161
  21   2.0000      -0.711730       -19.3671
  22   2.0000      -0.705407       -19.1951
  23   2.0000      -0.698196       -18.9989
  24   2.0000      -0.649940       -17.6858
  25   2.0000      -0.619557       -16.8590
  26   2.0000      -0.602916       -16.4062
  27   2.0000      -0.597656       -16.2630
  28   2.0000      -0.595871       -16.2145
  29   2.0000      -0.578079       -15.7303
  30   2.0000      -0.573480       -15.6052
  31   2.0000      -0.549026       -14.9398
  32   2.0000      -0.541680       -14.7399
  33   2.0000      -0.523860       -14.2550
  34   2.0000      -0.511713       -13.9244
  35   2.0000      -0.508591       -13.8395
  36   2.0000      -0.504449       -13.7268
  37   2.0000      -0.494387       -13.4530
  38   2.0000      -0.493293       -13.4232
  39   2.0000      -0.488649       -13.2968
  40   0.0000       0.079835         2.1724
  41   0.0000       0.124387         3.3847
  42   0.0000       0.136091         3.7032
  43   0.0000       0.151994         4.1360
  44   0.0000       0.163452         4.4478

MULLIKEN ATOMIC CHARGES
-----------------------
   0 O :   -0.759614
   1 H :    0.350955
   2 H :    0.382765
   3 O :   -0.725644
   4 H :    0.386643
   5 H :    0.365884
   6 O :   -0.726778
   7 H :    0.355416
   8 H :    0.378848
   9 O :   -0.719617
  10 H :    0.376748
  11 H :    0.371431
  12 O :   -0.735868
  13 H :    0.330267
  14 H :    0.362897
  15 O :   -0.722386
  16 H :    0.380892
  17 H :    0.372024
  18 O :   -0.753356
  19 H :    0.340788
  20 H :    0.385324
  21 O :   -0.672629
  22 H :    0.335893
  23 H :    0.339118
Sum of atomic charges:    0.0000000

LOEWDIN ATOMIC CHARGES
----------------------
   0 O :   -0.316824
   1 H :    0.159209
   2 H :    0.146095
   3 O :   -0.288696
   4 H :    0.157886
   5 H :    0.148233
   6 O :   -0.315781
   7 H :    0.138640
   8 H :    0.149888
   9 O :   -0.275665
  10 H :    0.180809
  11 H :    0.182320
  12 O :   -0.344500
  13 H :    0.158359
  14 H :    0.143818
  15 O :   -0.285656
  16 H :    0.154323
  17 H :    0.151267
  18 O :   -0.346418
  19 H :    0.155433
  20 H :    0.145911
  21 O :   -0.327728
  22 H :    0.162169
  23 H :    0.166909

  Mayer bond orders larger than 0.100000
B(  0-O ,  1-H ) :   0.8402 B(  0-O ,  2-H ) :   0.7267 B(  2-H , 15-O ) :   0.1232
B(  3-O ,  4-H ) :   0.8008 B(  3-O ,  5-H ) :   0.8018 B(  3-O , 20-H ) :   0.1199
B(  6-O ,  7-H ) :   0.7983 B(  6-O ,  8-H ) :   0.8014 B(  6-O , 14-H ) :   0.1175
B(  9-O , 10-H ) :   0.8231 B(  9-O , 11-H ) :   0.8156 B( 12-O , 13-H ) :   0.8531
B( 12-O , 14-H ) :   0.7569 B( 15-O , 16-H ) :   0.8140 B( 15-O , 17-H ) :   0.7852
B( 18-O , 19-H ) :   0.8486 B( 18-O , 20-H ) :   0.7368 B( 21-O , 22-H ) :   0.8519
B( 21-O , 23-H ) :   0.8506

MP2 TOTAL ENERGY:     -610.597023558 Eh
FINAL SINGLE POINT ENERGY      -610.597023557889

DIPOLE MOMENT
-------------
                                X             Y             Z
Electronic contribution:      0.32419       0.13173       0.08770
Nuclear contribution   :     -0.11171      -0.00057       0.19520
                        -----------------------------------------
Total Dipole Moment    :      0.21248       0.13116       0.28289
                        -----------------------------------------
Magnitude (a.u.)       :      0.37733
Magnitude (Debye)      :      0.95909

Rotational constants in cm-1:     0.032249     0.019869     0.019411
Rotational constants in MHz :   966.809197   595.654051   581.915018

                             ****ORCA TERMINATED NORMALLY****
TOTAL RUN TIME: 0 days 0 hours 3 minutes 24 seconds 630 msec
