                         Program Version 4.2.0 -  RELEASE  -
|  1> # 12h2o.su.etal.mol0,3,5,6,8
|  2> ! MP2 def2-TZVP EnGrad TightSCF
|  3>
|  4> %pal
|  5>     nprocs 6
|  6> end
|  7>
|  8> %maxcore 8000
|  9>
| 10> %scf
| 11>     ConvForced true
| 12> end
| 13>
| 14> *xyz 0 1
| 15> O   1.794470000   0.923410000   2.768350000
| 16> H   2.338250000   1.359750000   3.430940000
| 17> H   0.879480000   1.303000000   2.865760000
| 18> O  -1.752130000  -0.741530000  -2.896280000
| 19> H  -2.036450000  -0.920500000  -1.984040000
| 20> H  -0.921210000  -1.242140000  -2.984230000
| 21> O   0.885520000  -1.737840000   0.052730000
| 22> H   1.284090000  -0.839590000   0.017130000
| 23> H   1.032320000  -2.090180000  -0.841890000
| 24> O   1.737840000   0.885520000  -0.052730000
| 25> H   2.090180000   1.032320000   0.841890000
| 26> H   0.839590000   1.284090000  -0.017130000
| 27> O   1.752130000   0.741530000  -2.896280000
| 28> H   2.036450000   0.920500000  -1.984040000
| 29> H   0.921210000   1.242140000  -2.984230000
| 30> *
| 31>
| 32>                          ****END OF INPUT****

CARTESIAN COORDINATES (ANGSTROEM)
---------------------------------
  O      1.794470    0.923410    2.768350
  H      2.338250    1.359750    3.430940
  H      0.879480    1.303000    2.865760
  O     -1.752130   -0.741530   -2.896280
  H     -2.036450   -0.920500   -1.984040
  H     -0.921210   -1.242140   -2.984230
  O      0.885520   -1.737840    0.052730
  H      1.284090   -0.839590    0.017130
  H      1.032320   -2.090180   -0.841890
  O      1.737840    0.885520   -0.052730
  H      2.090180    1.032320    0.841890
  H      0.839590    1.284090   -0.017130
  O      1.752130    0.741530   -2.896280
  H      2.036450    0.920500   -1.984040
  H      0.921210    1.242140   -2.984230

 Total Charge           Charge          ....    0
 Multiplicity           Mult            ....    1
 Number of Electrons    NEL             ....   50
 Basis Dimension        Dim             ....  215

ORBITAL ENERGIES
----------------

  NO   OCC          E(Eh)            E(eV)
   0   2.0000     -20.608766      -560.7930
   1   2.0000     -20.594623      -560.4082
   2   2.0000     -20.557524      -559.3987
   3   2.0000     -20.539352      -558.9042
   4   2.0000     -20.528936      -558.6207
   5   2.0000      -1.389571       -37.8121
   6   2.0000      -1.377294       -37.4781
   7   2.0000      -1.336631       -36.3716
   8   2.0000      -1.321215       -35.9521
   9   2.0000      -1.309808       -35.6417
  10   2.0000      -0.754658       -20.5353
  11   2.0000      -0.742637       -20.2082
  12   2.0000      -0.699550       -19.0357
  13   2.0000      -0.692293       -18.8382
  14   2.0000      -0.685146       -18.6438
  15   2.0000      -0.635870       -17.3029
  16   2.0000      -0.610260       -16.6060
  17   2.0000      -0.575109       -15.6495
  18   2.0000      -0.570561       -15.5257
  19   2.0000      -0.557725       -15.1765
  20   2.0000      -0.544679       -14.8215
  21   2.0000      -0.522333       -14.2134
  22   2.0000      -0.502516       -13.6742
  23   2.0000      -0.485297       -13.2056
  24   2.0000      -0.476679       -12.9711
  25   0.0000       0.082890         2.2556
  26   0.0000       0.113770         3.0958
  27   0.0000       0.146976         3.9994
  28   0.0000       0.167997         4.5714
  29   0.0000       0.181011         4.9256

MULLIKEN ATOMIC CHARGES
-----------------------
   0 O :   -0.691403
   1 H :    0.358022
   2 H :    0.354266
   3 O :   -0.684285
   4 H :    0.338722
   5 H :    0.342657
   6 O :   -0.715912
   7 H :    0.361471
   8 H :    0.325110
   9 O :   -0.719292
  10 H :    0.390488
  11 H :    0.342943
  12 O :   -0.700788
  13 H :    0.368924
  14 H :    0.329077
Sum of atomic charges:   -0.0000000

LOEWDIN ATOMIC CHARGES
----------------------
   0 O :   -0.306724
   1 H :    0.166598
   2 H :    0.186026
   3 O :   -0.333222
   4 H :    0.164881
   5 H :    0.165884
   6 O :   -0.359757
   7 H :    0.141805
   8 H :    0.155427
   9 O :   -0.282624
  10 H :    0.158244
  11 H :    0.172402
  12 O :   -0.338917
  13 H :    0.149924
  14 H :    0.160053

  Mayer bond orders larger than 0.100000
B(  0-O ,  1-H ) :   0.8387 B(  0-O ,  2-H ) :   0.8349 B(  3-O ,  4-H ) :   0.8509
B(  3-O ,  5-H ) :   0.8456 B(  6-O ,  7-H ) :   0.8019 B(  6-O ,  8-H ) :   0.8583
B(  9-O , 10-H ) :   0.7894 B(  9-O , 11-H ) :   0.8391 B( 12-O , 13-H ) :   0.8216
B( 12-O , 14-H ) :   0.8542

MP2 TOTAL ENERGY:     -381.589066254 Eh
FINAL SINGLE POINT ENERGY      -381.589066253657

DIPOLE MOMENT
-------------
                                X             Y             Z
Electronic contribution:      0.21884      -0.02992       0.11568
Nuclear contribution   :     -0.30943       1.58749       2.00481
                        -----------------------------------------
Total Dipole Moment    :     -0.09059       1.55757       2.12049
                        -----------------------------------------
Magnitude (a.u.)       :      2.63263
Magnitude (Debye)      :      6.69160

Rotational constants in cm-1:     0.085946     0.031426     0.026706
Rotational constants in MHz :  2576.583340   942.137142   800.625682

                             ****ORCA TERMINATED NORMALLY****
TOTAL RUN TIME: 0 days 0 hours 0 minutes 33 seconds 305 msec
