                         Program Version 4.2.0 -  RELEASE  -
|  1> # 12h2o.su.etal.mol1,3,5,6,8
|  2> ! MP2 def2-TZVP EnGrad TightSCF
|  3>
|  4> %pal
|  5>     nprocs 6
|  6> end
|  7>
|  8> %maxcore 8000
|  9>
| 10> %scf
| 11>     ConvForced true
| 12> end
| 13>
| 14> *xyz 0 1
| 15> O  -1.794470000  -0.923410000   2.768350000
| 16> H  -2.338250000  -1.359750000   3.430940000
| 17> H  -0.879480000  -1.303000000   2.865760000
| 18> O  -1.752130000  -0.741530000  -2.896280000
| 19> H  -2.036450000  -0.920500000  -1.984040000
| 20> H  -0.921210000  -1.242140000  -2.984230000
| 21> O   0.885520000  -1.737840000   0.052730000
| 22> H   1.284090000  -0.839590000   0.017130000
| 23> H   1.032320000  -2.090180000  -0.841890000
| 24> O   1.737840000   0.885520000  -0.052730000
| 25> H   2.090180000   1.032320000   0.841890000
| 26> H   0.839590000   1.284090000  -0.017130000
| 27> O   1.752130000   0.741530000  -2.896280000
| 28> H   2.036450000   0.920500000  -1.984040000
| 29> H   0.921210000   1.242140000  -2.984230000
| 30> *
| 31>
| 32>                          ****END OF INPUT****

CARTESIAN COORDINATES (ANGSTROEM)
---------------------------------
  O     -1.794470   -0.923410    2.768350
  H     -2.338250   -1.359750    3.430940
  H     -0.879480   -1.303000    2.865760
  O     -1.752130   -0.741530   -2.896280
  H     -2.036450   -0.920500   -1.984040
  H     -0.921210   -1.242140   -2.984230
  O      0.885520   -1.737840    0.052730
  H      1.284090   -0.839590    0.017130
  H      1.032320   -2.090180   -0.841890
  O      1.737840    0.885520   -0.052730
  H      2.090180    1.032320    0.841890
  H      0.839590    1.284090   -0.017130
  O      1.752130    0.741530   -2.896280
  H      2.036450    0.920500   -1.984040
  H      0.921210    1.242140   -2.984230

 Total Charge           Charge          ....    0
 Multiplicity           Mult            ....    1
 Number of Electrons    NEL             ....   50
 Basis Dimension        Dim             ....  215

ORBITAL ENERGIES
----------------

  NO   OCC          E(Eh)            E(eV)
   0   2.0000     -20.623730      -561.2002
   1   2.0000     -20.562854      -559.5437
   2   2.0000     -20.556890      -559.3814
   3   2.0000     -20.547059      -559.1139
   4   2.0000     -20.543104      -559.0063
   5   2.0000      -1.406579       -38.2749
   6   2.0000      -1.338241       -36.4154
   7   2.0000      -1.336025       -36.3551
   8   2.0000      -1.328898       -36.1612
   9   2.0000      -1.324102       -36.0307
  10   2.0000      -0.764910       -20.8143
  11   2.0000      -0.706699       -19.2303
  12   2.0000      -0.705345       -19.1934
  13   2.0000      -0.698934       -19.0190
  14   2.0000      -0.697778       -18.9875
  15   2.0000      -0.641756       -17.4631
  16   2.0000      -0.588874       -16.0241
  17   2.0000      -0.574980       -15.6460
  18   2.0000      -0.574079       -15.6215
  19   2.0000      -0.562119       -15.2960
  20   2.0000      -0.542582       -14.7644
  21   2.0000      -0.506239       -13.7755
  22   2.0000      -0.502484       -13.6733
  23   2.0000      -0.492408       -13.3991
  24   2.0000      -0.490372       -13.3437
  25   0.0000       0.083128         2.2620
  26   0.0000       0.127955         3.4818
  27   0.0000       0.131094         3.5672
  28   0.0000       0.156602         4.2614
  29   0.0000       0.182837         4.9752

MULLIKEN ATOMIC CHARGES
-----------------------
   0 O :   -0.690106
   1 H :    0.338701
   2 H :    0.349657
   3 O :   -0.685312
   4 H :    0.343856
   5 H :    0.339302
   6 O :   -0.712617
   7 H :    0.352804
   8 H :    0.331988
   9 O :   -0.709337
  10 H :    0.370470
  11 H :    0.369825
  12 O :   -0.697898
  13 H :    0.365695
  14 H :    0.332971
Sum of atomic charges:    0.0000000

LOEWDIN ATOMIC CHARGES
----------------------
   0 O :   -0.342369
   1 H :    0.157862
   2 H :    0.182645
   3 O :   -0.333292
   4 H :    0.167060
   5 H :    0.164357
   6 O :   -0.358231
   7 H :    0.140104
   8 H :    0.159123
   9 O :   -0.276669
  10 H :    0.178675
  11 H :    0.185163
  12 O :   -0.336257
  13 H :    0.149740
  14 H :    0.162089

  Mayer bond orders larger than 0.100000
B(  0-O ,  1-H ) :   0.8533 B(  0-O ,  2-H ) :   0.8396 B(  3-O ,  4-H ) :   0.8479
B(  3-O ,  5-H ) :   0.8477 B(  6-O ,  7-H ) :   0.8079 B(  6-O ,  8-H ) :   0.8549
B(  9-O , 10-H ) :   0.8276 B(  9-O , 11-H ) :   0.8233 B( 12-O , 13-H ) :   0.8270
B( 12-O , 14-H ) :   0.8518

MP2 TOTAL ENERGY:     -381.582637667 Eh
FINAL SINGLE POINT ENERGY      -381.582637666925

DIPOLE MOMENT
-------------
                                X             Y             Z
Electronic contribution:      0.04611       0.17870      -0.17389
Nuclear contribution   :      0.30853       0.22919       2.00481
                        -----------------------------------------
Total Dipole Moment    :      0.35465       0.40789       1.83091
                        -----------------------------------------
Magnitude (a.u.)       :      1.90903
Magnitude (Debye)      :      4.85236

Rotational constants in cm-1:     0.061654     0.032461     0.024679
Rotational constants in MHz :  1848.341560   973.162352   739.866447

                             ****ORCA TERMINATED NORMALLY****
TOTAL RUN TIME: 0 days 0 hours 0 minutes 27 seconds 221 msec
