                         Program Version 4.2.0 -  RELEASE  -
|  1> # 12mecn.remya.etal.2.mol3,8,11
|  2> ! MP2 def2-TZVP EnGrad TightSCF
|  3>
|  4> %pal
|  5>     nprocs 6
|  6> end
|  7>
|  8> %maxcore 8000
|  9>
| 10> %scf
| 11>     ConvForced true
| 12> end
| 13>
| 14> *xyz 0 1
| 15> C  -5.181310000   2.853865000  -1.626100000
| 16> H  -5.488260000   3.811434000  -2.053310000
| 17> H  -5.857590000   2.068112000  -1.968630000
| 18> H  -4.170750000   2.611402000  -1.966640000
| 19> C  -5.187260000   2.919160000  -0.181450000
| 20> N  -5.181700000   2.970641000   0.983640000
| 21> C   1.912641000  -2.468050000  -1.750510000
| 22> H   2.876947000  -2.793500000  -2.151200000
| 23> H   1.688016000  -1.463720000  -2.122170000
| 24> H   1.123460000  -3.154780000  -2.069590000
| 25> C   1.977850000  -2.444240000  -0.306900000
| 26> N   2.036566000  -2.426130000   0.858249000
| 27> C   4.214163000   3.378139000   1.593627000
| 28> H   3.242643000   3.657109000   2.012358000
| 29> H   4.969258000   4.086643000   1.941290000
| 30> H   4.482966000   2.372549000   1.931698000
| 31> C   4.130759000   3.388436000   0.150192000
| 32> N   4.050180000   3.381449000  -1.013420000
| 33> *
| 34>
| 35>                          ****END OF INPUT****

CARTESIAN COORDINATES (ANGSTROEM)
---------------------------------
  C     -5.181310    2.853865   -1.626100
  H     -5.488260    3.811434   -2.053310
  H     -5.857590    2.068112   -1.968630
  H     -4.170750    2.611402   -1.966640
  C     -5.187260    2.919160   -0.181450
  N     -5.181700    2.970641    0.983640
  C      1.912641   -2.468050   -1.750510
  H      2.876947   -2.793500   -2.151200
  H      1.688016   -1.463720   -2.122170
  H      1.123460   -3.154780   -2.069590
  C      1.977850   -2.444240   -0.306900
  N      2.036566   -2.426130    0.858249
  C      4.214163    3.378139    1.593627
  H      3.242643    3.657109    2.012358
  H      4.969258    4.086643    1.941290
  H      4.482966    2.372549    1.931698
  C      4.130759    3.388436    0.150192
  N      4.050180    3.381449   -1.013420

 Total Charge           Charge          ....    0
 Multiplicity           Mult            ....    1
 Number of Electrons    NEL             ....   66
 Basis Dimension        Dim             ....  333

ORBITAL ENERGIES
----------------

  NO   OCC          E(Eh)            E(eV)
   0   2.0000     -15.573240      -423.7694
   1   2.0000     -15.572914      -423.7605
   2   2.0000     -15.572482      -423.7488
   3   2.0000     -11.285111      -307.0835
   4   2.0000     -11.284115      -307.0564
   5   2.0000     -11.282268      -307.0061
   6   2.0000     -11.280272      -306.9518
   7   2.0000     -11.280193      -306.9497
   8   2.0000     -11.280174      -306.9491
   9   2.0000      -1.214821       -33.0570
  10   2.0000      -1.214504       -33.0483
  11   2.0000      -1.214453       -33.0470
  12   2.0000      -1.043921       -28.4065
  13   2.0000      -1.043029       -28.3823
  14   2.0000      -1.041350       -28.3366
  15   2.0000      -0.701331       -19.0842
  16   2.0000      -0.698859       -19.0169
  17   2.0000      -0.698454       -19.0059
  18   2.0000      -0.632703       -17.2167
  19   2.0000      -0.631955       -17.1964
  20   2.0000      -0.630434       -17.1550
  21   2.0000      -0.629851       -17.1391
  22   2.0000      -0.629068       -17.1178
  23   2.0000      -0.628303       -17.0970
  24   2.0000      -0.556156       -15.1338
  25   2.0000      -0.556047       -15.1308
  26   2.0000      -0.556041       -15.1306
  27   2.0000      -0.458170       -12.4674
  28   2.0000      -0.457705       -12.4548
  29   2.0000      -0.457655       -12.4534
  30   2.0000      -0.457520       -12.4497
  31   2.0000      -0.457394       -12.4463
  32   2.0000      -0.457335       -12.4447
  33   0.0000       0.116338         3.1657
  34   0.0000       0.118903         3.2355
  35   0.0000       0.125358         3.4112
  36   0.0000       0.171064         4.6549
  37   0.0000       0.171324         4.6620

MULLIKEN ATOMIC CHARGES
-----------------------
   0 C :   -0.280935
   1 H :    0.172688
   2 H :    0.171798
   3 H :    0.172136
   4 C :   -0.145444
   5 N :   -0.090244
   6 C :   -0.278852
   7 H :    0.172559
   8 H :    0.176256
   9 H :    0.170635
  10 C :   -0.145186
  11 N :   -0.095413
  12 C :   -0.279584
  13 H :    0.174031
  14 H :    0.170966
  15 H :    0.177475
  16 C :   -0.144660
  17 N :   -0.098228
Sum of atomic charges:    0.0000000

LOEWDIN ATOMIC CHARGES
----------------------
   0 C :   -0.284035
   1 H :    0.151568
   2 H :    0.151392
   3 H :    0.153055
   4 C :   -0.218860
   5 N :    0.046880
   6 C :   -0.283291
   7 H :    0.153188
   8 H :    0.154048
   9 H :    0.152030
  10 C :   -0.219276
  11 N :    0.043302
  12 C :   -0.282703
  13 H :    0.153966
  14 H :    0.150898
  15 H :    0.154972
  16 C :   -0.218097
  17 N :    0.040963

  Mayer bond orders larger than 0.100000
B(  0-C ,  1-H ) :   0.9161 B(  0-C ,  2-H ) :   0.9169 B(  0-C ,  3-H ) :   0.9168
B(  0-C ,  4-C ) :   0.9027 B(  4-C ,  5-N ) :   2.8368 B(  6-C ,  7-H ) :   0.9158
B(  6-C ,  8-H ) :   0.9153 B(  6-C ,  9-H ) :   0.9166 B(  6-C , 10-C ) :   0.9019
B( 10-C , 11-N ) :   2.8389 B( 12-C , 13-H ) :   0.9153 B( 12-C , 14-H ) :   0.9165
B( 12-C , 15-H ) :   0.9145 B( 12-C , 16-C ) :   0.9029 B( 16-C , 17-N ) :   2.8411

MP2 TOTAL ENERGY:     -397.450838815 Eh
FINAL SINGLE POINT ENERGY      -397.450838814917

DIPOLE MOMENT
-------------
                                X             Y             Z
Electronic contribution:     -0.05801       0.22443       3.13348
Nuclear contribution   :      0.08487      -0.32095      -4.64381
                        -----------------------------------------
Total Dipole Moment    :      0.02685      -0.09652      -1.51033
                        -----------------------------------------
Magnitude (a.u.)       :      1.51365
Magnitude (Debye)      :      3.84738

Rotational constants in cm-1:     0.017518     0.007703     0.005931
Rotational constants in MHz :   525.190950   230.936461   177.806801

                             ****ORCA TERMINATED NORMALLY****
TOTAL RUN TIME: 0 days 0 hours 1 minutes 42 seconds 171 msec
