                         Program Version 4.2.0 -  RELEASE  -
|  1> # 12h2o.su.etal.mol0,2,7,8,11
|  2> ! MP2 def2-TZVP EnGrad TightSCF
|  3>
|  4> %pal
|  5>     nprocs 6
|  6> end
|  7>
|  8> %maxcore 8000
|  9>
| 10> %scf
| 11>     ConvForced true
| 12> end
| 13>
| 14> *xyz 0 1
| 15> O   1.794470000   0.923410000   2.768350000
| 16> H   2.338250000   1.359750000   3.430940000
| 17> H   0.879480000   1.303000000   2.865760000
| 18> O   0.923410000  -1.794470000  -2.768350000
| 19> H   1.359750000  -2.338250000  -3.430940000
| 20> H   1.303000000  -0.879480000  -2.865760000
| 21> O  -1.737840000  -0.885520000  -0.052730000
| 22> H  -2.090180000  -1.032320000   0.841890000
| 23> H  -0.839590000  -1.284090000  -0.017130000
| 24> O   1.752130000   0.741530000  -2.896280000
| 25> H   2.036450000   0.920500000  -1.984040000
| 26> H   0.921210000   1.242140000  -2.984230000
| 27> O  -0.741530000   1.752130000   2.896280000
| 28> H  -0.920500000   2.036450000   1.984040000
| 29> H  -1.242140000   0.921210000   2.984230000
| 30> *
| 31>
| 32>                          ****END OF INPUT****

CARTESIAN COORDINATES (ANGSTROEM)
---------------------------------
  O      1.794470    0.923410    2.768350
  H      2.338250    1.359750    3.430940
  H      0.879480    1.303000    2.865760
  O      0.923410   -1.794470   -2.768350
  H      1.359750   -2.338250   -3.430940
  H      1.303000   -0.879480   -2.865760
  O     -1.737840   -0.885520   -0.052730
  H     -2.090180   -1.032320    0.841890
  H     -0.839590   -1.284090   -0.017130
  O      1.752130    0.741530   -2.896280
  H      2.036450    0.920500   -1.984040
  H      0.921210    1.242140   -2.984230
  O     -0.741530    1.752130    2.896280
  H     -0.920500    2.036450    1.984040
  H     -1.242140    0.921210    2.984230

 Total Charge           Charge          ....    0
 Multiplicity           Mult            ....    1
 Number of Electrons    NEL             ....   50
 Basis Dimension        Dim             ....  215

ORBITAL ENERGIES
----------------

  NO   OCC          E(Eh)            E(eV)
   0   2.0000     -20.604486      -560.6766
   1   2.0000     -20.594963      -560.4174
   2   2.0000     -20.566042      -559.6305
   3   2.0000     -20.525668      -558.5318
   4   2.0000     -20.517092      -558.2984
   5   2.0000      -1.389706       -37.8158
   6   2.0000      -1.380276       -37.5592
   7   2.0000      -1.341794       -36.5121
   8   2.0000      -1.308044       -35.5937
   9   2.0000      -1.299349       -35.3571
  10   2.0000      -0.747326       -20.3358
  11   2.0000      -0.737659       -20.0727
  12   2.0000      -0.703425       -19.1412
  13   2.0000      -0.698927       -19.0188
  14   2.0000      -0.690049       -18.7772
  15   2.0000      -0.624698       -16.9989
  16   2.0000      -0.615438       -16.7469
  17   2.0000      -0.581075       -15.8119
  18   2.0000      -0.565491       -15.3878
  19   2.0000      -0.556559       -15.1447
  20   2.0000      -0.522019       -14.2049
  21   2.0000      -0.513168       -13.9640
  22   2.0000      -0.508628       -13.8405
  23   2.0000      -0.476122       -12.9559
  24   2.0000      -0.467339       -12.7169
  25   0.0000       0.084667         2.3039
  26   0.0000       0.113976         3.1015
  27   0.0000       0.149450         4.0667
  28   0.0000       0.169708         4.6180
  29   0.0000       0.176726         4.8090

MULLIKEN ATOMIC CHARGES
-----------------------
   0 O :   -0.734186
   1 H :    0.327704
   2 H :    0.363244
   3 O :   -0.730899
   4 H :    0.325504
   5 H :    0.364872
   6 O :   -0.679427
   7 H :    0.321330
   8 H :    0.358462
   9 O :   -0.680300
  10 H :    0.362902
  11 H :    0.360683
  12 O :   -0.674533
  13 H :    0.361676
  14 H :    0.352966
Sum of atomic charges:   -0.0000000

LOEWDIN ATOMIC CHARGES
----------------------
   0 O :   -0.373491
   1 H :    0.149625
   2 H :    0.141040
   3 O :   -0.371565
   4 H :    0.149213
   5 H :    0.141812
   6 O :   -0.336838
   7 H :    0.157008
   8 H :    0.180027
   9 O :   -0.271173
  10 H :    0.176769
  11 H :    0.177389
  12 O :   -0.268720
  13 H :    0.175719
  14 H :    0.173185

  Mayer bond orders larger than 0.100000
B(  0-O ,  1-H ) :   0.8594 B(  0-O ,  2-H ) :   0.7892 B(  3-O ,  4-H ) :   0.8603
B(  3-O ,  5-H ) :   0.7876 B(  6-O ,  7-H ) :   0.8604 B(  6-O ,  8-H ) :   0.8350
B(  9-O , 10-H ) :   0.8340 B(  9-O , 11-H ) :   0.8352 B( 12-O , 13-H ) :   0.8340
B( 12-O , 14-H ) :   0.8388

MP2 TOTAL ENERGY:     -381.582133882 Eh
FINAL SINGLE POINT ENERGY      -381.582133882368

DIPOLE MOMENT
-------------
                                X             Y             Z
Electronic contribution:     -0.16046       0.25797      -0.18352
Nuclear contribution   :     -0.19606       0.64487       0.77428
                        -----------------------------------------
Total Dipole Moment    :     -0.35652       0.90284       0.59075
                        -----------------------------------------
Magnitude (a.u.)       :      1.13632
Magnitude (Debye)      :      2.88829

Rotational constants in cm-1:     0.067126     0.023364     0.019719
Rotational constants in MHz :  2012.377039   700.436685   591.158135

                             ****ORCA TERMINATED NORMALLY****
TOTAL RUN TIME: 0 days 0 hours 0 minutes 24 seconds 550 msec
