                         Program Version 4.2.0 -  RELEASE  -
|  1> # 12meoh.boyd.etal.mol6,11
|  2> ! MP2 def2-TZVP EnGrad TightSCF
|  3>
|  4> %pal
|  5>     nprocs 6
|  6> end
|  7>
|  8> %maxcore 8000
|  9>
| 10> %scf
| 11>     ConvForced true
| 12> end
| 13>
| 14> *xyz 0 1
| 15> O   2.622209273  -1.703002590  -1.445859723
| 16> H   1.828551432  -1.986513781  -0.909754968
| 17> C   2.781117675  -2.615822239  -2.525472890
| 18> H   3.691063626  -2.339003544  -3.065143454
| 19> H   1.934727323  -2.559520367  -3.223226661
| 20> H   2.879948338  -3.653846211  -2.177750170
| 21> O   3.252955559   0.588596242   1.858934315
| 22> H   3.621209177  -0.251605199   1.476063364
| 23> C   4.040824528   0.944288422   2.989639460
| 24> H   3.670521436   1.902573549   3.363847391
| 25> H   5.103749934   1.055868619   2.734277559
| 26> H   3.948540682   0.200279590   3.792908518
| 27> *
| 28>
| 29>                          ****END OF INPUT****

CARTESIAN COORDINATES (ANGSTROEM)
---------------------------------
  O      2.622209   -1.703003   -1.445860
  H      1.828551   -1.986514   -0.909755
  C      2.781118   -2.615822   -2.525473
  H      3.691064   -2.339004   -3.065143
  H      1.934727   -2.559520   -3.223227
  H      2.879948   -3.653846   -2.177750
  O      3.252956    0.588596    1.858934
  H      3.621209   -0.251605    1.476063
  C      4.040825    0.944288    2.989639
  H      3.670521    1.902574    3.363847
  H      5.103750    1.055869    2.734278
  H      3.948541    0.200280    3.792909

 Total Charge           Charge          ....    0
 Multiplicity           Mult            ....    1
 Number of Electrons    NEL             ....   36
 Basis Dimension        Dim             ....  172

ORBITAL ENERGIES
----------------

  NO   OCC          E(Eh)            E(eV)
   0   2.0000     -20.560125      -559.4694
   1   2.0000     -20.549448      -559.1789
   2   2.0000     -11.273300      -306.7621
   3   2.0000     -11.266062      -306.5651
   4   2.0000      -1.348068       -36.6828
   5   2.0000      -1.338957       -36.4349
   6   2.0000      -0.921093       -25.0642
   7   2.0000      -0.913691       -24.8628
   8   2.0000      -0.682865       -18.5817
   9   2.0000      -0.674519       -18.3546
  10   2.0000      -0.618860       -16.8400
  11   2.0000      -0.610825       -16.6214
  12   2.0000      -0.593182       -16.1413
  13   2.0000      -0.584053       -15.8929
  14   2.0000      -0.501744       -13.6532
  15   2.0000      -0.493531       -13.4297
  16   2.0000      -0.451004       -12.2724
  17   2.0000      -0.442171       -12.0321
  18   0.0000       0.126232         3.4349
  19   0.0000       0.150050         4.0831
  20   0.0000       0.169992         4.6257
  21   0.0000       0.195923         5.3313
  22   0.0000       0.227229         6.1832

MULLIKEN ATOMIC CHARGES
-----------------------
   0 O :   -0.498660
   1 H :    0.325153
   2 C :   -0.173860
   3 H :    0.130037
   4 H :    0.111455
   5 H :    0.108840
   6 O :   -0.498814
   7 H :    0.326415
   8 C :   -0.173496
   9 H :    0.127172
  10 H :    0.109796
  11 H :    0.105961
Sum of atomic charges:   -0.0000000

LOEWDIN ATOMIC CHARGES
----------------------
   0 O :   -0.111682
   1 H :    0.193829
   2 C :   -0.381869
   3 H :    0.110507
   4 H :    0.096226
   5 H :    0.095190
   6 O :   -0.108726
   7 H :    0.191147
   8 C :   -0.383251
   9 H :    0.109358
  10 H :    0.095305
  11 H :    0.093968

  Mayer bond orders larger than 0.100000
B(  0-O ,  1-H ) :   0.8382 B(  0-O ,  2-C ) :   0.9234 B(  2-C ,  3-H ) :   0.9379
B(  2-C ,  4-H ) :   0.9383 B(  2-C ,  5-H ) :   0.9386 B(  6-O ,  7-H ) :   0.8363
B(  6-O ,  8-C ) :   0.9328 B(  8-C ,  9-H ) :   0.9379 B(  8-C , 10-H ) :   0.9392
B(  8-C , 11-H ) :   0.9389

MP2 TOTAL ENERGY:     -231.014419153 Eh
FINAL SINGLE POINT ENERGY      -231.014419152506

DIPOLE MOMENT
-------------
                                X             Y             Z
Electronic contribution:     -1.15377       0.88766      -0.14239
Nuclear contribution   :      1.26749      -1.81490       0.20565
                        -----------------------------------------
Total Dipole Moment    :      0.11373      -0.92723       0.06325
                        -----------------------------------------
Magnitude (a.u.)       :      0.93632
Magnitude (Debye)      :      2.37994

Rotational constants in cm-1:     1.315451     0.034188     0.033851
Rotational constants in MHz : 39436.222727  1024.924464  1014.815458

                             ****ORCA TERMINATED NORMALLY****
TOTAL RUN TIME: 0 days 0 hours 0 minutes 19 seconds 63 msec
