                         Program Version 4.2.0 -  RELEASE  -
|  1> # 12h2o.su.etal.mol3,5,6,7,8,9,11
|  2> ! MP2 def2-TZVP EnGrad TightSCF
|  3>
|  4> %pal
|  5>     nprocs 6
|  6> end
|  7>
|  8> %maxcore 8000
|  9>
| 10> %scf
| 11>     ConvForced true
| 12> end
| 13>
| 14> *xyz 0 1
| 15> O  -1.752130000  -0.741530000  -2.896280000
| 16> H  -2.036450000  -0.920500000  -1.984040000
| 17> H  -0.921210000  -1.242140000  -2.984230000
| 18> O   0.885520000  -1.737840000   0.052730000
| 19> H   1.284090000  -0.839590000   0.017130000
| 20> H   1.032320000  -2.090180000  -0.841890000
| 21> O   1.737840000   0.885520000  -0.052730000
| 22> H   2.090180000   1.032320000   0.841890000
| 23> H   0.839590000   1.284090000  -0.017130000
| 24> O  -1.737840000  -0.885520000  -0.052730000
| 25> H  -2.090180000  -1.032320000   0.841890000
| 26> H  -0.839590000  -1.284090000  -0.017130000
| 27> O   1.752130000   0.741530000  -2.896280000
| 28> H   2.036450000   0.920500000  -1.984040000
| 29> H   0.921210000   1.242140000  -2.984230000
| 30> O   0.741530000  -1.752130000   2.896280000
| 31> H   0.920500000  -2.036450000   1.984040000
| 32> H   1.242140000  -0.921210000   2.984230000
| 33> O  -0.741530000   1.752130000   2.896280000
| 34> H  -0.920500000   2.036450000   1.984040000
| 35> H  -1.242140000   0.921210000   2.984230000
| 36> *
| 37>
| 38>                          ****END OF INPUT****

CARTESIAN COORDINATES (ANGSTROEM)
---------------------------------
  O     -1.752130   -0.741530   -2.896280
  H     -2.036450   -0.920500   -1.984040
  H     -0.921210   -1.242140   -2.984230
  O      0.885520   -1.737840    0.052730
  H      1.284090   -0.839590    0.017130
  H      1.032320   -2.090180   -0.841890
  O      1.737840    0.885520   -0.052730
  H      2.090180    1.032320    0.841890
  H      0.839590    1.284090   -0.017130
  O     -1.737840   -0.885520   -0.052730
  H     -2.090180   -1.032320    0.841890
  H     -0.839590   -1.284090   -0.017130
  O      1.752130    0.741530   -2.896280
  H      2.036450    0.920500   -1.984040
  H      0.921210    1.242140   -2.984230
  O      0.741530   -1.752130    2.896280
  H      0.920500   -2.036450    1.984040
  H      1.242140   -0.921210    2.984230
  O     -0.741530    1.752130    2.896280
  H     -0.920500    2.036450    1.984040
  H     -1.242140    0.921210    2.984230

 Total Charge           Charge          ....    0
 Multiplicity           Mult            ....    1
 Number of Electrons    NEL             ....   70
 Basis Dimension        Dim             ....  301

ORBITAL ENERGIES
----------------

  NO   OCC          E(Eh)            E(eV)
   0   2.0000     -20.645327      -561.7879
   1   2.0000     -20.605757      -560.7112
   2   2.0000     -20.588795      -560.2496
   3   2.0000     -20.571874      -559.7891
   4   2.0000     -20.560085      -559.4683
   5   2.0000     -20.556917      -559.3821
   6   2.0000     -20.538499      -558.8810
   7   2.0000      -1.428973       -38.8843
   8   2.0000      -1.393622       -37.9224
   9   2.0000      -1.367625       -37.2150
  10   2.0000      -1.354867       -36.8678
  11   2.0000      -1.341620       -36.5073
  12   2.0000      -1.338771       -36.4298
  13   2.0000      -1.319871       -35.9155
  14   2.0000      -0.785833       -21.3836
  15   2.0000      -0.762646       -20.7526
  16   2.0000      -0.730704       -19.8835
  17   2.0000      -0.728849       -19.8330
  18   2.0000      -0.715040       -19.4572
  19   2.0000      -0.711029       -19.3481
  20   2.0000      -0.689257       -18.7556
  21   2.0000      -0.664853       -18.0916
  22   2.0000      -0.640055       -17.4168
  23   2.0000      -0.608695       -16.5634
  24   2.0000      -0.604834       -16.4584
  25   2.0000      -0.588131       -16.0039
  26   2.0000      -0.574503       -15.6330
  27   2.0000      -0.568489       -15.4694
  28   2.0000      -0.557475       -15.1697
  29   2.0000      -0.543512       -14.7897
  30   2.0000      -0.532964       -14.5027
  31   2.0000      -0.519724       -14.1424
  32   2.0000      -0.505735       -13.7618
  33   2.0000      -0.503540       -13.7020
  34   2.0000      -0.484245       -13.1770
  35   0.0000       0.057133         1.5547
  36   0.0000       0.111410         3.0316
  37   0.0000       0.113367         3.0849
  38   0.0000       0.124685         3.3928
  39   0.0000       0.162598         4.4245

MULLIKEN ATOMIC CHARGES
-----------------------
   0 O :   -0.696951
   1 H :    0.373637
   2 H :    0.317676
   3 O :   -0.733550
   4 H :    0.368892
   5 H :    0.367095
   6 O :   -0.711580
   7 H :    0.375000
   8 H :    0.366253
   9 O :   -0.732654
  10 H :    0.342189
  11 H :    0.356083
  12 O :   -0.697010
  13 H :    0.364395
  14 H :    0.337523
  15 O :   -0.692349
  16 H :    0.373674
  17 H :    0.319683
  18 O :   -0.676394
  19 H :    0.329797
  20 H :    0.348591
Sum of atomic charges:   -0.0000000

LOEWDIN ATOMIC CHARGES
----------------------
   0 O :   -0.339189
   1 H :    0.153290
   2 H :    0.154435
   3 O :   -0.291500
   4 H :    0.145464
   5 H :    0.173776
   6 O :   -0.271348
   7 H :    0.178740
   8 H :    0.181522
   9 O :   -0.340904
  10 H :    0.162857
  11 H :    0.141074
  12 O :   -0.335320
  13 H :    0.148613
  14 H :    0.164334
  15 O :   -0.334638
  16 H :    0.151877
  17 H :    0.155673
  18 O :   -0.327192
  19 H :    0.159383
  20 H :    0.169053

  Mayer bond orders larger than 0.100000
B(  0-O ,  1-H ) :   0.8164 B(  0-O ,  2-H ) :   0.8606 B(  3-O ,  4-H ) :   0.7716
B(  3-O ,  5-H ) :   0.8284 B(  6-O ,  7-H ) :   0.8229 B(  6-O ,  8-H ) :   0.8193
B(  9-O , 10-H ) :   0.8456 B(  9-O , 11-H ) :   0.7787 B( 12-O , 13-H ) :   0.8303
B( 12-O , 14-H ) :   0.8484 B( 15-O , 16-H ) :   0.8191 B( 15-O , 17-H ) :   0.8593
B( 18-O , 19-H ) :   0.8551 B( 18-O , 20-H ) :   0.8414

MP2 TOTAL ENERGY:     -534.235065100 Eh
FINAL SINGLE POINT ENERGY      -534.235065099902

DIPOLE MOMENT
-------------
                                X             Y             Z
Electronic contribution:      0.21553       0.06554       0.03958
Nuclear contribution   :      0.45394       0.45439       0.77428
                        -----------------------------------------
Total Dipole Moment    :      0.66948       0.51993       0.81386
                        -----------------------------------------
Magnitude (a.u.)       :      1.17511
Magnitude (Debye)      :      2.98690

Rotational constants in cm-1:     0.036814     0.021578     0.019637
Rotational constants in MHz :  1103.648484   646.903462   588.707833

                             ****ORCA TERMINATED NORMALLY****
TOTAL RUN TIME: 0 days 0 hours 1 minutes 50 seconds 418 msec
