                         Program Version 4.2.0 -  RELEASE  -
|  1> # 12meoh.boyd.etal.mol1,2,3
|  2> ! MP2 def2-TZVP EnGrad TightSCF
|  3>
|  4> %pal
|  5>     nprocs 6
|  6> end
|  7>
|  8> %maxcore 8000
|  9>
| 10> %scf
| 11>     ConvForced true
| 12> end
| 13>
| 14> *xyz 0 1
| 15> O   0.666045193  -2.600503172   0.138317521
| 16> H  -0.227115049  -2.712051982  -0.281868004
| 17> C   0.490021232  -1.851247678   1.341189459
| 18> H   1.466500502  -1.466176022   1.645844415
| 19> H   0.097564527  -2.488364683   2.146902740
| 20> H  -0.187588112  -1.000787499   1.200739571
| 21> O  -3.839777402   2.233595098   0.660436763
| 22> H  -2.958345897   1.907036203   0.973588449
| 23> C  -3.600368059   3.168790682  -0.390480452
| 24> H  -4.551709193   3.344148967  -0.901254863
| 25> H  -2.868237594   2.789240199  -1.113617525
| 26> H  -3.243594915   4.128998607   0.009549480
| 27> O  -3.821405976  -2.118091637   0.596795346
| 28> H  -4.342989117  -1.344303030   0.251966383
| 29> C  -3.443883586  -1.809641231   1.934889393
| 30> H  -2.831494349  -2.637429600   2.305201764
| 31> H  -4.325601146  -1.719364371   2.585074667
| 32> H  -2.858527126  -0.882644791   1.996110694
| 33> *
| 34>
| 35>                          ****END OF INPUT****

CARTESIAN COORDINATES (ANGSTROEM)
---------------------------------
  O      0.666045   -2.600503    0.138318
  H     -0.227115   -2.712052   -0.281868
  C      0.490021   -1.851248    1.341189
  H      1.466501   -1.466176    1.645844
  H      0.097565   -2.488365    2.146903
  H     -0.187588   -1.000787    1.200740
  O     -3.839777    2.233595    0.660437
  H     -2.958346    1.907036    0.973588
  C     -3.600368    3.168791   -0.390480
  H     -4.551709    3.344149   -0.901255
  H     -2.868238    2.789240   -1.113618
  H     -3.243595    4.128999    0.009549
  O     -3.821406   -2.118092    0.596795
  H     -4.342989   -1.344303    0.251966
  C     -3.443884   -1.809641    1.934889
  H     -2.831494   -2.637430    2.305202
  H     -4.325601   -1.719364    2.585075
  H     -2.858527   -0.882645    1.996111

 Total Charge           Charge          ....    0
 Multiplicity           Mult            ....    1
 Number of Electrons    NEL             ....   54
 Basis Dimension        Dim             ....  258

ORBITAL ENERGIES
----------------

  NO   OCC          E(Eh)            E(eV)
   0   2.0000     -20.569239      -559.7175
   1   2.0000     -20.562729      -559.5403
   2   2.0000     -20.554624      -559.3197
   3   2.0000     -11.280793      -306.9660
   4   2.0000     -11.277308      -306.8712
   5   2.0000     -11.272309      -306.7351
   6   2.0000      -1.358335       -36.9622
   7   2.0000      -1.351887       -36.7867
   8   2.0000      -1.342936       -36.5431
   9   2.0000      -0.929251       -25.2862
  10   2.0000      -0.925200       -25.1760
  11   2.0000      -0.919517       -25.0213
  12   2.0000      -0.692837       -18.8531
  13   2.0000      -0.686244       -18.6736
  14   2.0000      -0.679558       -18.4917
  15   2.0000      -0.626706       -17.0535
  16   2.0000      -0.623249       -16.9595
  17   2.0000      -0.616338       -16.7714
  18   2.0000      -0.600715       -16.3463
  19   2.0000      -0.595450       -16.2030
  20   2.0000      -0.588798       -16.0220
  21   2.0000      -0.512200       -13.9377
  22   2.0000      -0.506356       -13.7787
  23   2.0000      -0.500312       -13.6142
  24   2.0000      -0.460245       -12.5239
  25   2.0000      -0.454780       -12.3752
  26   2.0000      -0.447959       -12.1896
  27   0.0000       0.097185         2.6445
  28   0.0000       0.141528         3.8512
  29   0.0000       0.153833         4.1860
  30   0.0000       0.157757         4.2928
  31   0.0000       0.175847         4.7850

MULLIKEN ATOMIC CHARGES
-----------------------
   0 O :   -0.500568
   1 H :    0.329767
   2 C :   -0.166147
   3 H :    0.131695
   4 H :    0.106455
   5 H :    0.098225
   6 O :   -0.502101
   7 H :    0.322576
   8 C :   -0.178795
   9 H :    0.131624
  10 H :    0.115813
  11 H :    0.114827
  12 O :   -0.507155
  13 H :    0.330173
  14 C :   -0.165744
  15 H :    0.129322
  16 H :    0.122925
  17 H :    0.087110
Sum of atomic charges:   -0.0000000

LOEWDIN ATOMIC CHARGES
----------------------
   0 O :   -0.111380
   1 H :    0.192804
   2 C :   -0.378226
   3 H :    0.108611
   4 H :    0.095554
   5 H :    0.092281
   6 O :   -0.113185
   7 H :    0.186818
   8 C :   -0.376522
   9 H :    0.110604
  10 H :    0.097274
  11 H :    0.097664
  12 O :   -0.111301
  13 H :    0.193924
  14 C :   -0.382663
  15 H :    0.109199
  16 H :    0.099535
  17 H :    0.089010

  Mayer bond orders larger than 0.100000
B(  0-O ,  1-H ) :   0.8379 B(  0-O ,  2-C ) :   0.9353 B(  2-C ,  3-H ) :   0.9367
B(  2-C ,  4-H ) :   0.9395 B(  2-C ,  5-H ) :   0.9424 B(  6-O ,  7-H ) :   0.8421
B(  6-O ,  8-C ) :   0.9175 B(  8-C ,  9-H ) :   0.9377 B(  8-C , 10-H ) :   0.9407
B(  8-C , 11-H ) :   0.9383 B( 12-O , 13-H ) :   0.8362 B( 12-O , 14-C ) :   0.9250
B( 14-C , 15-H ) :   0.9382 B( 14-C , 16-H ) :   0.9397 B( 14-C , 17-H ) :   0.9374

MP2 TOTAL ENERGY:     -346.523762650 Eh
FINAL SINGLE POINT ENERGY      -346.523762650239

DIPOLE MOMENT
-------------
                                X             Y             Z
Electronic contribution:     -0.53059      -2.57878      -1.90821
Nuclear contribution   :      0.31945       3.62662       2.18743
                        -----------------------------------------
Total Dipole Moment    :     -0.21114       1.04784       0.27921
                        -----------------------------------------
Magnitude (a.u.)       :      1.10477
Magnitude (Debye)      :      2.80810

Rotational constants in cm-1:     0.065287     0.022736     0.018403
Rotational constants in MHz :  1957.269465   681.606268   551.701753

                             ****ORCA TERMINATED NORMALLY****
TOTAL RUN TIME: 0 days 0 hours 1 minutes 5 seconds 194 msec
