                         Program Version 4.2.0 -  RELEASE  -
|  1> # 12h2o.su.etal.mol1,2,3,5,6,9
|  2> ! MP2 def2-TZVP EnGrad TightSCF
|  3>
|  4> %pal
|  5>     nprocs 6
|  6> end
|  7>
|  8> %maxcore 8000
|  9>
| 10> %scf
| 11>     ConvForced true
| 12> end
| 13>
| 14> *xyz 0 1
| 15> O  -1.794470000  -0.923410000   2.768350000
| 16> H  -2.338250000  -1.359750000   3.430940000
| 17> H  -0.879480000  -1.303000000   2.865760000
| 18> O   0.923410000  -1.794470000  -2.768350000
| 19> H   1.359750000  -2.338250000  -3.430940000
| 20> H   1.303000000  -0.879480000  -2.865760000
| 21> O  -1.752130000  -0.741530000  -2.896280000
| 22> H  -2.036450000  -0.920500000  -1.984040000
| 23> H  -0.921210000  -1.242140000  -2.984230000
| 24> O   0.885520000  -1.737840000   0.052730000
| 25> H   1.284090000  -0.839590000   0.017130000
| 26> H   1.032320000  -2.090180000  -0.841890000
| 27> O   1.737840000   0.885520000  -0.052730000
| 28> H   2.090180000   1.032320000   0.841890000
| 29> H   0.839590000   1.284090000  -0.017130000
| 30> O   0.741530000  -1.752130000   2.896280000
| 31> H   0.920500000  -2.036450000   1.984040000
| 32> H   1.242140000  -0.921210000   2.984230000
| 33> *
| 34>
| 35>                          ****END OF INPUT****

CARTESIAN COORDINATES (ANGSTROEM)
---------------------------------
  O     -1.794470   -0.923410    2.768350
  H     -2.338250   -1.359750    3.430940
  H     -0.879480   -1.303000    2.865760
  O      0.923410   -1.794470   -2.768350
  H      1.359750   -2.338250   -3.430940
  H      1.303000   -0.879480   -2.865760
  O     -1.752130   -0.741530   -2.896280
  H     -2.036450   -0.920500   -1.984040
  H     -0.921210   -1.242140   -2.984230
  O      0.885520   -1.737840    0.052730
  H      1.284090   -0.839590    0.017130
  H      1.032320   -2.090180   -0.841890
  O      1.737840    0.885520   -0.052730
  H      2.090180    1.032320    0.841890
  H      0.839590    1.284090   -0.017130
  O      0.741530   -1.752130    2.896280
  H      0.920500   -2.036450    1.984040
  H      1.242140   -0.921210    2.984230

 Total Charge           Charge          ....    0
 Multiplicity           Mult            ....    1
 Number of Electrons    NEL             ....   60
 Basis Dimension        Dim             ....  258

ORBITAL ENERGIES
----------------

  NO   OCC          E(Eh)            E(eV)
   0   2.0000     -20.613724      -560.9280
   1   2.0000     -20.612824      -560.9034
   2   2.0000     -20.565454      -559.6145
   3   2.0000     -20.541510      -558.9629
   4   2.0000     -20.531476      -558.6899
   5   2.0000     -20.505537      -557.9840
   6   2.0000      -1.394524       -37.9469
   7   2.0000      -1.392848       -37.9013
   8   2.0000      -1.355150       -36.8755
   9   2.0000      -1.326338       -36.0915
  10   2.0000      -1.314021       -35.7563
  11   2.0000      -1.287659       -35.0390
  12   2.0000      -0.759568       -20.6689
  13   2.0000      -0.751158       -20.4400
  14   2.0000      -0.718990       -19.5647
  15   2.0000      -0.705859       -19.2074
  16   2.0000      -0.685574       -18.6554
  17   2.0000      -0.675994       -18.3947
  18   2.0000      -0.641167       -17.4470
  19   2.0000      -0.626849       -17.0574
  20   2.0000      -0.601536       -16.3686
  21   2.0000      -0.583096       -15.8668
  22   2.0000      -0.560318       -15.2470
  23   2.0000      -0.542120       -14.7518
  24   2.0000      -0.539478       -14.6799
  25   2.0000      -0.530551       -14.4370
  26   2.0000      -0.496748       -13.5172
  27   2.0000      -0.490344       -13.3429
  28   2.0000      -0.479140       -13.0381
  29   2.0000      -0.456092       -12.4109
  30   0.0000       0.079781         2.1709
  31   0.0000       0.106000         2.8844
  32   0.0000       0.147421         4.0115
  33   0.0000       0.166478         4.5301
  34   0.0000       0.182787         4.9739

MULLIKEN ATOMIC CHARGES
-----------------------
   0 O :   -0.738324
   1 H :    0.321563
   2 H :    0.369145
   3 O :   -0.713370
   4 H :    0.363705
   5 H :    0.373851
   6 O :   -0.709918
   7 H :    0.341774
   8 H :    0.353220
   9 O :   -0.737245
  10 H :    0.337545
  11 H :    0.368580
  12 O :   -0.686609
  13 H :    0.354257
  14 H :    0.374212
  15 O :   -0.689188
  16 H :    0.390834
  17 H :    0.325966
Sum of atomic charges:   -0.0000000

LOEWDIN ATOMIC CHARGES
----------------------
   0 O :   -0.376076
   1 H :    0.146554
   2 H :    0.142306
   3 O :   -0.286367
   4 H :    0.167769
   5 H :    0.192764
   6 O :   -0.348592
   7 H :    0.165247
   8 H :    0.144508
   9 O :   -0.344205
  10 H :    0.136459
  11 H :    0.148736
  12 O :   -0.291069
  13 H :    0.171206
  14 H :    0.187504
  15 O :   -0.277286
  16 H :    0.159988
  17 H :    0.160554

  Mayer bond orders larger than 0.100000
B(  0-O ,  1-H ) :   0.8627 B(  0-O ,  2-H ) :   0.7802 B(  3-O ,  4-H ) :   0.8323
B(  3-O ,  5-H ) :   0.8187 B(  6-O ,  7-H ) :   0.8497 B(  6-O ,  8-H ) :   0.8281
B(  9-O , 10-H ) :   0.7946 B(  9-O , 11-H ) :   0.8190 B( 12-O , 13-H ) :   0.8397
B( 12-O , 14-H ) :   0.8242 B( 15-O , 16-H ) :   0.7900 B( 15-O , 17-H ) :   0.8552

MP2 TOTAL ENERGY:     -457.916764221 Eh
FINAL SINGLE POINT ENERGY      -457.916764221413

DIPOLE MOMENT
-------------
                                X             Y             Z
Electronic contribution:      0.19213      -0.02440      -0.40996
Nuclear contribution   :      2.00830       0.42748       0.00000
                        -----------------------------------------
Total Dipole Moment    :      2.20043       0.40308      -0.40996
                        -----------------------------------------
Magnitude (a.u.)       :      2.27430
Magnitude (Debye)      :      5.78082

Rotational constants in cm-1:     0.055076     0.024821     0.021326
Rotational constants in MHz :  1651.151190   744.117919   639.323358

                             ****ORCA TERMINATED NORMALLY****
TOTAL RUN TIME: 0 days 0 hours 0 minutes 55 seconds 79 msec
