                         Program Version 4.2.0 -  RELEASE  -
|  1> # 12h2o.su.etal.mol1,2,3,6,9,11
|  2> ! MP2 def2-TZVP EnGrad TightSCF
|  3>
|  4> %pal
|  5>     nprocs 6
|  6> end
|  7>
|  8> %maxcore 8000
|  9>
| 10> %scf
| 11>     ConvForced true
| 12> end
| 13>
| 14> *xyz 0 1
| 15> O  -1.794470000  -0.923410000   2.768350000
| 16> H  -2.338250000  -1.359750000   3.430940000
| 17> H  -0.879480000  -1.303000000   2.865760000
| 18> O   0.923410000  -1.794470000  -2.768350000
| 19> H   1.359750000  -2.338250000  -3.430940000
| 20> H   1.303000000  -0.879480000  -2.865760000
| 21> O  -1.752130000  -0.741530000  -2.896280000
| 22> H  -2.036450000  -0.920500000  -1.984040000
| 23> H  -0.921210000  -1.242140000  -2.984230000
| 24> O   1.737840000   0.885520000  -0.052730000
| 25> H   2.090180000   1.032320000   0.841890000
| 26> H   0.839590000   1.284090000  -0.017130000
| 27> O   0.741530000  -1.752130000   2.896280000
| 28> H   0.920500000  -2.036450000   1.984040000
| 29> H   1.242140000  -0.921210000   2.984230000
| 30> O  -0.741530000   1.752130000   2.896280000
| 31> H  -0.920500000   2.036450000   1.984040000
| 32> H  -1.242140000   0.921210000   2.984230000
| 33> *
| 34>
| 35>                          ****END OF INPUT****

CARTESIAN COORDINATES (ANGSTROEM)
---------------------------------
  O     -1.794470   -0.923410    2.768350
  H     -2.338250   -1.359750    3.430940
  H     -0.879480   -1.303000    2.865760
  O      0.923410   -1.794470   -2.768350
  H      1.359750   -2.338250   -3.430940
  H      1.303000   -0.879480   -2.865760
  O     -1.752130   -0.741530   -2.896280
  H     -2.036450   -0.920500   -1.984040
  H     -0.921210   -1.242140   -2.984230
  O      1.737840    0.885520   -0.052730
  H      2.090180    1.032320    0.841890
  H      0.839590    1.284090   -0.017130
  O      0.741530   -1.752130    2.896280
  H      0.920500   -2.036450    1.984040
  H      1.242140   -0.921210    2.984230
  O     -0.741530    1.752130    2.896280
  H     -0.920500    2.036450    1.984040
  H     -1.242140    0.921210    2.984230

 Total Charge           Charge          ....    0
 Multiplicity           Mult            ....    1
 Number of Electrons    NEL             ....   60
 Basis Dimension        Dim             ....  258

ORBITAL ENERGIES
----------------

  NO   OCC          E(Eh)            E(eV)
   0   2.0000     -20.605616      -560.7073
   1   2.0000     -20.586782      -560.1948
   2   2.0000     -20.580046      -560.0115
   3   2.0000     -20.552161      -559.2527
   4   2.0000     -20.544348      -559.0401
   5   2.0000     -20.530828      -558.6722
   6   2.0000      -1.391378       -37.8613
   7   2.0000      -1.364500       -37.1299
   8   2.0000      -1.355752       -36.8919
   9   2.0000      -1.338063       -36.4106
  10   2.0000      -1.324368       -36.0379
  11   2.0000      -1.313221       -35.7346
  12   2.0000      -0.747993       -20.3539
  13   2.0000      -0.731560       -19.9067
  14   2.0000      -0.721858       -19.6428
  15   2.0000      -0.717990       -19.5375
  16   2.0000      -0.693969       -18.8839
  17   2.0000      -0.682400       -18.5690
  18   2.0000      -0.630978       -17.1698
  19   2.0000      -0.604251       -16.4425
  20   2.0000      -0.595831       -16.2134
  21   2.0000      -0.589373       -16.0377
  22   2.0000      -0.563211       -15.3258
  23   2.0000      -0.555890       -15.1265
  24   2.0000      -0.534028       -14.5317
  25   2.0000      -0.523890       -14.2558
  26   2.0000      -0.522165       -14.2088
  27   2.0000      -0.501600       -13.6492
  28   2.0000      -0.491133       -13.3644
  29   2.0000      -0.478561       -13.0223
  30   0.0000       0.079869         2.1733
  31   0.0000       0.116760         3.1772
  32   0.0000       0.131973         3.5912
  33   0.0000       0.145695         3.9646
  34   0.0000       0.165254         4.4968

MULLIKEN ATOMIC CHARGES
-----------------------
   0 O :   -0.739140
   1 H :    0.342635
   2 H :    0.378503
   3 O :   -0.698852
   4 H :    0.350898
   5 H :    0.367951
   6 O :   -0.707482
   7 H :    0.330274
   8 H :    0.356251
   9 O :   -0.679337
  10 H :    0.338033
  11 H :    0.341213
  12 O :   -0.684056
  13 H :    0.367256
  14 H :    0.360339
  15 O :   -0.710708
  16 H :    0.320533
  17 H :    0.365689
Sum of atomic charges:   -0.0000000

LOEWDIN ATOMIC CHARGES
----------------------
   0 O :   -0.339724
   1 H :    0.156469
   2 H :    0.144954
   3 O :   -0.311963
   4 H :    0.162852
   5 H :    0.190559
   6 O :   -0.349858
   7 H :    0.160559
   8 H :    0.146537
   9 O :   -0.335540
  10 H :    0.163856
  11 H :    0.171987
  12 O :   -0.268366
  13 H :    0.178097
  14 H :    0.174858
  15 O :   -0.348432
  16 H :    0.154389
  17 H :    0.148767

  Mayer bond orders larger than 0.100000
B(  0-O ,  1-H ) :   0.8476 B(  0-O ,  2-H ) :   0.7654 B(  3-O ,  4-H ) :   0.8424
B(  3-O ,  5-H ) :   0.8245 B(  6-O ,  7-H ) :   0.8574 B(  6-O ,  8-H ) :   0.8184
B(  9-O , 10-H ) :   0.8508 B(  9-O , 11-H ) :   0.8457 B( 12-O , 13-H ) :   0.8305
B( 12-O , 14-H ) :   0.8317 B( 15-O , 16-H ) :   0.8611 B( 15-O , 17-H ) :   0.8004

MP2 TOTAL ENERGY:     -457.910743141 Eh
FINAL SINGLE POINT ENERGY      -457.910743141151

DIPOLE MOMENT
-------------
                                X             Y             Z
Electronic contribution:      0.25983      -0.28130       0.01106
Nuclear contribution   :      0.98870      -0.48188       0.08817
                        -----------------------------------------
Total Dipole Moment    :      1.24854      -0.76318       0.09923
                        -----------------------------------------
Magnitude (a.u.)       :      1.46668
Magnitude (Debye)      :      3.72799

Rotational constants in cm-1:     0.045701     0.018830     0.018177
Rotational constants in MHz :  1370.073763   564.508273   544.919148

                             ****ORCA TERMINATED NORMALLY****
TOTAL RUN TIME: 0 days 0 hours 0 minutes 45 seconds 433 msec
