                         Program Version 4.2.0 -  RELEASE  -
|  1> # 12meoh.boyd.etal.mol4,5,10
|  2> ! MP2 def2-TZVP EnGrad TightSCF
|  3>
|  4> %pal
|  5>     nprocs 6
|  6> end
|  7>
|  8> %maxcore 8000
|  9>
| 10> %scf
| 11>     ConvForced true
| 12> end
| 13>
| 14> *xyz 0 1
| 15> O  -1.358578914   1.232360421   1.189721000
| 16> H  -1.058250183   1.216459361   0.238591307
| 17> C  -0.389763452   1.957872567   1.943072362
| 18> H  -0.747220771   2.012806578   2.975200343
| 19> H  -0.260410585   2.982763209   1.565366540
| 20> H   0.585220638   1.453754179   1.934070793
| 21> O  -0.662721750   1.449094618  -1.383082065
| 22> H   0.064188300   2.119867608  -1.465650660
| 23> C  -0.353319239   0.341218776  -2.229326771
| 24> H  -1.072358530  -0.454743281  -2.019906495
| 25> H   0.657636746  -0.044472139  -2.042736771
| 26> H  -0.434616607   0.624733901  -3.287793021
| 27> O  -5.201143618   0.064582726  -0.172223772
| 28> H  -4.686891530   0.869258890   0.107806143
| 29> C  -6.513192168   0.171391798   0.359883449
| 30> H  -7.049381312  -0.749234190   0.111361174
| 31> H  -7.057741163   1.017801101  -0.081819420
| 32> H  -6.514770575   0.292264928   1.453058834
| 33> *
| 34>
| 35>                          ****END OF INPUT****

CARTESIAN COORDINATES (ANGSTROEM)
---------------------------------
  O     -1.358579    1.232360    1.189721
  H     -1.058250    1.216459    0.238591
  C     -0.389763    1.957873    1.943072
  H     -0.747221    2.012807    2.975200
  H     -0.260411    2.982763    1.565367
  H      0.585221    1.453754    1.934071
  O     -0.662722    1.449095   -1.383082
  H      0.064188    2.119868   -1.465651
  C     -0.353319    0.341219   -2.229327
  H     -1.072359   -0.454743   -2.019906
  H      0.657637   -0.044472   -2.042737
  H     -0.434617    0.624734   -3.287793
  O     -5.201144    0.064583   -0.172224
  H     -4.686892    0.869259    0.107806
  C     -6.513192    0.171392    0.359883
  H     -7.049381   -0.749234    0.111361
  H     -7.057741    1.017801   -0.081819
  H     -6.514771    0.292265    1.453059

 Total Charge           Charge          ....    0
 Multiplicity           Mult            ....    1
 Number of Electrons    NEL             ....   54
 Basis Dimension        Dim             ....  258

ORBITAL ENERGIES
----------------

  NO   OCC          E(Eh)            E(eV)
   0   2.0000     -20.590536      -560.2970
   1   2.0000     -20.542449      -558.9884
   2   2.0000     -20.516352      -558.2783
   3   2.0000     -11.289993      -307.2163
   4   2.0000     -11.259908      -306.3977
   5   2.0000     -11.254474      -306.2498
   6   2.0000      -1.382825       -37.6286
   7   2.0000      -1.332872       -36.2693
   8   2.0000      -1.311903       -35.6987
   9   2.0000      -0.942568       -25.6486
  10   2.0000      -0.907032       -24.6816
  11   2.0000      -0.900095       -24.4928
  12   2.0000      -0.714900       -19.4534
  13   2.0000      -0.675632       -18.3849
  14   2.0000      -0.668367       -18.1872
  15   2.0000      -0.635472       -17.2921
  16   2.0000      -0.610141       -16.6028
  17   2.0000      -0.604192       -16.4409
  18   2.0000      -0.594700       -16.1826
  19   2.0000      -0.578391       -15.7388
  20   2.0000      -0.564347       -15.3567
  21   2.0000      -0.528497       -14.3811
  22   2.0000      -0.488860       -13.3026
  23   2.0000      -0.486950       -13.2506
  24   2.0000      -0.459583       -12.5059
  25   2.0000      -0.434817       -11.8320
  26   2.0000      -0.420071       -11.4307
  27   0.0000       0.112353         3.0573
  28   0.0000       0.150751         4.1021
  29   0.0000       0.159277         4.3341
  30   0.0000       0.178964         4.8699
  31   0.0000       0.182542         4.9672

MULLIKEN ATOMIC CHARGES
-----------------------
   0 O :   -0.528108
   1 H :    0.358083
   2 C :   -0.184323
   3 H :    0.124622
   4 H :    0.093916
   5 H :    0.098664
   6 O :   -0.519907
   7 H :    0.340385
   8 C :   -0.186161
   9 H :    0.157607
  10 H :    0.122777
  11 H :    0.125344
  12 O :   -0.501706
  13 H :    0.332372
  14 C :   -0.171746
  15 H :    0.123576
  16 H :    0.104273
  17 H :    0.110333
Sum of atomic charges:   -0.0000000

LOEWDIN ATOMIC CHARGES
----------------------
   0 O :   -0.127006
   1 H :    0.159642
   2 C :   -0.397580
   3 H :    0.107073
   4 H :    0.089061
   5 H :    0.090480
   6 O :   -0.075868
   7 H :    0.196828
   8 C :   -0.365387
   9 H :    0.119414
  10 H :    0.100920
  11 H :    0.104552
  12 O :   -0.107472
  13 H :    0.194951
  14 C :   -0.386774
  15 H :    0.108220
  16 H :    0.093356
  17 H :    0.095589

  Mayer bond orders larger than 0.100000
B(  0-O ,  1-H ) :   0.7836 B(  0-O ,  2-C ) :   0.9466 B(  2-C ,  3-H ) :   0.9426
B(  2-C ,  4-H ) :   0.9375 B(  2-C ,  5-H ) :   0.9375 B(  6-O ,  7-H ) :   0.8291
B(  6-O ,  8-C ) :   0.8678 B(  8-C ,  9-H ) :   0.9374 B(  8-C , 10-H ) :   0.9378
B(  8-C , 11-H ) :   0.9340 B( 12-O , 13-H ) :   0.8326 B( 12-O , 14-C ) :   0.9366
B( 14-C , 15-H ) :   0.9382 B( 14-C , 16-H ) :   0.9396 B( 14-C , 17-H ) :   0.9385

MP2 TOTAL ENERGY:     -346.530100101 Eh
FINAL SINGLE POINT ENERGY      -346.530100101105

DIPOLE MOMENT
-------------
                                X             Y             Z
Electronic contribution:     -0.10639      -0.00834      -0.85914
Nuclear contribution   :      1.12577       0.68186       0.15830
                        -----------------------------------------
Total Dipole Moment    :      1.01938       0.67352      -0.70084
                        -----------------------------------------
Magnitude (a.u.)       :      1.40852
Magnitude (Debye)      :      3.58018

Rotational constants in cm-1:     0.075216     0.026271     0.020104
Rotational constants in MHz :  2254.908905   787.586540   602.702864

                             ****ORCA TERMINATED NORMALLY****
TOTAL RUN TIME: 0 days 0 hours 1 minutes 9 seconds 296 msec
