                         Program Version 4.2.0 -  RELEASE  -
|  1> # 12h2o.su.etal.mol3,4,8,9,10,11
|  2> ! MP2 def2-TZVP EnGrad TightSCF
|  3>
|  4> %pal
|  5>     nprocs 6
|  6> end
|  7>
|  8> %maxcore 8000
|  9>
| 10> %scf
| 11>     ConvForced true
| 12> end
| 13>
| 14> *xyz 0 1
| 15> O  -1.752130000  -0.741530000  -2.896280000
| 16> H  -2.036450000  -0.920500000  -1.984040000
| 17> H  -0.921210000  -1.242140000  -2.984230000
| 18> O  -0.885520000   1.737840000   0.052730000
| 19> H  -1.032320000   2.090180000  -0.841890000
| 20> H  -1.284090000   0.839590000   0.017130000
| 21> O   1.752130000   0.741530000  -2.896280000
| 22> H   2.036450000   0.920500000  -1.984040000
| 23> H   0.921210000   1.242140000  -2.984230000
| 24> O   0.741530000  -1.752130000   2.896280000
| 25> H   0.920500000  -2.036450000   1.984040000
| 26> H   1.242140000  -0.921210000   2.984230000
| 27> O  -0.923410000   1.794470000  -2.768350000
| 28> H  -1.359750000   2.338250000  -3.430940000
| 29> H  -1.303000000   0.879480000  -2.865760000
| 30> O  -0.741530000   1.752130000   2.896280000
| 31> H  -0.920500000   2.036450000   1.984040000
| 32> H  -1.242140000   0.921210000   2.984230000
| 33> *
| 34>
| 35>                          ****END OF INPUT****

CARTESIAN COORDINATES (ANGSTROEM)
---------------------------------
  O     -1.752130   -0.741530   -2.896280
  H     -2.036450   -0.920500   -1.984040
  H     -0.921210   -1.242140   -2.984230
  O     -0.885520    1.737840    0.052730
  H     -1.032320    2.090180   -0.841890
  H     -1.284090    0.839590    0.017130
  O      1.752130    0.741530   -2.896280
  H      2.036450    0.920500   -1.984040
  H      0.921210    1.242140   -2.984230
  O      0.741530   -1.752130    2.896280
  H      0.920500   -2.036450    1.984040
  H      1.242140   -0.921210    2.984230
  O     -0.923410    1.794470   -2.768350
  H     -1.359750    2.338250   -3.430940
  H     -1.303000    0.879480   -2.865760
  O     -0.741530    1.752130    2.896280
  H     -0.920500    2.036450    1.984040
  H     -1.242140    0.921210    2.984230

 Total Charge           Charge          ....    0
 Multiplicity           Mult            ....    1
 Number of Electrons    NEL             ....   60
 Basis Dimension        Dim             ....  258

ORBITAL ENERGIES
----------------

  NO   OCC          E(Eh)            E(eV)
   0   2.0000     -20.628471      -561.3292
   1   2.0000     -20.586233      -560.1799
   2   2.0000     -20.574601      -559.8634
   3   2.0000     -20.564645      -559.5924
   4   2.0000     -20.543902      -559.0280
   5   2.0000     -20.531074      -558.6789
   6   2.0000      -1.414667       -38.4950
   7   2.0000      -1.373467       -37.3739
   8   2.0000      -1.354660       -36.8622
   9   2.0000      -1.343809       -36.5669
  10   2.0000      -1.326102       -36.0851
  11   2.0000      -1.312748       -35.7217
  12   2.0000      -0.770534       -20.9673
  13   2.0000      -0.754750       -20.5378
  14   2.0000      -0.724637       -19.7184
  15   2.0000      -0.706452       -19.2235
  16   2.0000      -0.696363       -18.9490
  17   2.0000      -0.681144       -18.5349
  18   2.0000      -0.656105       -17.8535
  19   2.0000      -0.619259       -16.8509
  20   2.0000      -0.599884       -16.3237
  21   2.0000      -0.581640       -15.8272
  22   2.0000      -0.571390       -15.5483
  23   2.0000      -0.558990       -15.2109
  24   2.0000      -0.548506       -14.9256
  25   2.0000      -0.529318       -14.4035
  26   2.0000      -0.518662       -14.1135
  27   2.0000      -0.509138       -13.8544
  28   2.0000      -0.491637       -13.3781
  29   2.0000      -0.477202       -12.9853
  30   0.0000       0.065569         1.7842
  31   0.0000       0.118891         3.2352
  32   0.0000       0.132794         3.6135
  33   0.0000       0.145578         3.9614
  34   0.0000       0.165026         4.4906

MULLIKEN ATOMIC CHARGES
-----------------------
   0 O :   -0.679442
   1 H :    0.353497
   2 H :    0.376633
   3 O :   -0.701129
   4 H :    0.379613
   5 H :    0.309796
   6 O :   -0.713694
   7 H :    0.334879
   8 H :    0.360779
   9 O :   -0.681903
  10 H :    0.329488
  11 H :    0.351341
  12 O :   -0.751030
  13 H :    0.356020
  14 H :    0.381254
  15 O :   -0.700443
  16 H :    0.372003
  17 H :    0.322337
Sum of atomic charges:   -0.0000000

LOEWDIN ATOMIC CHARGES
----------------------
   0 O :   -0.264254
   1 H :    0.171251
   2 H :    0.183351
   3 O :   -0.322897
   4 H :    0.153559
   5 H :    0.157835
   6 O :   -0.349610
   7 H :    0.162068
   8 H :    0.145649
   9 O :   -0.333089
  10 H :    0.161732
  11 H :    0.170751
  12 O :   -0.311930
  13 H :    0.162084
  14 H :    0.145507
  15 O :   -0.341102
  16 H :    0.152336
  17 H :    0.156758

  Mayer bond orders larger than 0.100000
B(  0-O ,  1-H ) :   0.8395 B(  0-O ,  2-H ) :   0.8211 B(  3-O ,  4-H ) :   0.8000
B(  3-O ,  5-H ) :   0.8589 B(  6-O ,  7-H ) :   0.8536 B(  6-O ,  8-H ) :   0.8155
B(  9-O , 10-H ) :   0.8573 B(  9-O , 11-H ) :   0.8405 B( 12-O , 13-H ) :   0.8374
B( 12-O , 14-H ) :   0.7517 B( 15-O , 16-H ) :   0.8177 B( 15-O , 17-H ) :   0.8584

MP2 TOTAL ENERGY:     -457.913684702 Eh
FINAL SINGLE POINT ENERGY      -457.913684701952

DIPOLE MOMENT
-------------
                                X             Y             Z
Electronic contribution:     -0.02723      -0.02835      -0.19011
Nuclear contribution   :     -1.13309      -0.76337      -1.40687
                        -----------------------------------------
Total Dipole Moment    :     -1.16032      -0.79173      -1.59698
                        -----------------------------------------
Magnitude (a.u.)       :      2.12686
Magnitude (Debye)      :      5.40605

Rotational constants in cm-1:     0.048405     0.019830     0.018036
Rotational constants in MHz :  1451.135870   594.475286   540.700052

                             ****ORCA TERMINATED NORMALLY****
TOTAL RUN TIME: 0 days 0 hours 1 minutes 1 seconds 885 msec
