                         Program Version 4.2.0 -  RELEASE  -
|  1> # 12h2o.su.etal.mol0,3,4,6,9
|  2> ! MP2 def2-TZVP EnGrad TightSCF
|  3>
|  4> %pal
|  5>     nprocs 6
|  6> end
|  7>
|  8> %maxcore 8000
|  9>
| 10> %scf
| 11>     ConvForced true
| 12> end
| 13>
| 14> *xyz 0 1
| 15> O   1.794470000   0.923410000   2.768350000
| 16> H   2.338250000   1.359750000   3.430940000
| 17> H   0.879480000   1.303000000   2.865760000
| 18> O  -1.752130000  -0.741530000  -2.896280000
| 19> H  -2.036450000  -0.920500000  -1.984040000
| 20> H  -0.921210000  -1.242140000  -2.984230000
| 21> O  -0.885520000   1.737840000   0.052730000
| 22> H  -1.032320000   2.090180000  -0.841890000
| 23> H  -1.284090000   0.839590000   0.017130000
| 24> O   1.737840000   0.885520000  -0.052730000
| 25> H   2.090180000   1.032320000   0.841890000
| 26> H   0.839590000   1.284090000  -0.017130000
| 27> O   0.741530000  -1.752130000   2.896280000
| 28> H   0.920500000  -2.036450000   1.984040000
| 29> H   1.242140000  -0.921210000   2.984230000
| 30> *
| 31>
| 32>                          ****END OF INPUT****

CARTESIAN COORDINATES (ANGSTROEM)
---------------------------------
  O      1.794470    0.923410    2.768350
  H      2.338250    1.359750    3.430940
  H      0.879480    1.303000    2.865760
  O     -1.752130   -0.741530   -2.896280
  H     -2.036450   -0.920500   -1.984040
  H     -0.921210   -1.242140   -2.984230
  O     -0.885520    1.737840    0.052730
  H     -1.032320    2.090180   -0.841890
  H     -1.284090    0.839590    0.017130
  O      1.737840    0.885520   -0.052730
  H      2.090180    1.032320    0.841890
  H      0.839590    1.284090   -0.017130
  O      0.741530   -1.752130    2.896280
  H      0.920500   -2.036450    1.984040
  H      1.242140   -0.921210    2.984230

 Total Charge           Charge          ....    0
 Multiplicity           Mult            ....    1
 Number of Electrons    NEL             ....   50
 Basis Dimension        Dim             ....  215

ORBITAL ENERGIES
----------------

  NO   OCC          E(Eh)            E(eV)
   0   2.0000     -20.607580      -560.7608
   1   2.0000     -20.600226      -560.5607
   2   2.0000     -20.576503      -559.9151
   3   2.0000     -20.536509      -558.8268
   4   2.0000     -20.512571      -558.1754
   5   2.0000      -1.387817       -37.7644
   6   2.0000      -1.380621       -37.5686
   7   2.0000      -1.355468       -36.8842
   8   2.0000      -1.318936       -35.8901
   9   2.0000      -1.297124       -35.2965
  10   2.0000      -0.753466       -20.5028
  11   2.0000      -0.739003       -20.1093
  12   2.0000      -0.718291       -19.5457
  13   2.0000      -0.689766       -18.7695
  14   2.0000      -0.682896       -18.5826
  15   2.0000      -0.629981       -17.1426
  16   2.0000      -0.615637       -16.7523
  17   2.0000      -0.592752       -16.1296
  18   2.0000      -0.577343       -15.7103
  19   2.0000      -0.553163       -15.0523
  20   2.0000      -0.536486       -14.5985
  21   2.0000      -0.520127       -14.1534
  22   2.0000      -0.514146       -13.9906
  23   2.0000      -0.484267       -13.1776
  24   2.0000      -0.463216       -12.6047
  25   0.0000       0.081603         2.2205
  26   0.0000       0.108608         2.9554
  27   0.0000       0.150899         4.1062
  28   0.0000       0.162840         4.4311
  29   0.0000       0.175859         4.7854

MULLIKEN ATOMIC CHARGES
-----------------------
   0 O :   -0.712204
   1 H :    0.361322
   2 H :    0.372067
   3 O :   -0.671780
   4 H :    0.326145
   5 H :    0.349102
   6 O :   -0.683682
   7 H :    0.367081
   8 H :    0.347988
   9 O :   -0.731782
  10 H :    0.356487
  11 H :    0.337210
  12 O :   -0.707676
  13 H :    0.332481
  14 H :    0.357241
Sum of atomic charges:   -0.0000000

LOEWDIN ATOMIC CHARGES
----------------------
   0 O :   -0.286625
   1 H :    0.166505
   2 H :    0.191900
   3 O :   -0.328448
   4 H :    0.158950
   5 H :    0.172344
   6 O :   -0.291275
   7 H :    0.177048
   8 H :    0.174410
   9 O :   -0.369881
  10 H :    0.141922
  11 H :    0.134481
  12 O :   -0.348647
  13 H :    0.161209
  14 H :    0.146107

  Mayer bond orders larger than 0.100000
B(  0-O ,  1-H ) :   0.8333 B(  0-O ,  2-H ) :   0.8196 B(  3-O ,  4-H ) :   0.8580
B(  3-O ,  5-H ) :   0.8455 B(  6-O ,  7-H ) :   0.8318 B(  6-O ,  8-H ) :   0.8385
B(  9-O , 10-H ) :   0.8331 B(  9-O , 11-H ) :   0.8137 B( 12-O , 13-H ) :   0.8548
B( 12-O , 14-H ) :   0.8233

MP2 TOTAL ENERGY:     -381.586640894 Eh
FINAL SINGLE POINT ENERGY      -381.586640893518

DIPOLE MOMENT
-------------
                                X             Y             Z
Electronic contribution:     -0.09959       0.15840      -0.03350
Nuclear contribution   :     -0.19670       0.56801       0.63259
                        -----------------------------------------
Total Dipole Moment    :     -0.29628       0.72641       0.59910
                        -----------------------------------------
Magnitude (a.u.)       :      0.98710
Magnitude (Debye)      :      2.50901

Rotational constants in cm-1:     0.079781     0.028819     0.024691
Rotational constants in MHz :  2391.765098   863.974985   740.203170

                             ****ORCA TERMINATED NORMALLY****
TOTAL RUN TIME: 0 days 0 hours 0 minutes 29 seconds 647 msec
