                         Program Version 4.2.0 -  RELEASE  -
|  1> # 12h2o.su.etal.mol2,4,7,9,10,11
|  2> ! MP2 def2-TZVP EnGrad TightSCF
|  3>
|  4> %pal
|  5>     nprocs 6
|  6> end
|  7>
|  8> %maxcore 8000
|  9>
| 10> %scf
| 11>     ConvForced true
| 12> end
| 13>
| 14> *xyz 0 1
| 15> O   0.923410000  -1.794470000  -2.768350000
| 16> H   1.359750000  -2.338250000  -3.430940000
| 17> H   1.303000000  -0.879480000  -2.865760000
| 18> O  -0.885520000   1.737840000   0.052730000
| 19> H  -1.032320000   2.090180000  -0.841890000
| 20> H  -1.284090000   0.839590000   0.017130000
| 21> O  -1.737840000  -0.885520000  -0.052730000
| 22> H  -2.090180000  -1.032320000   0.841890000
| 23> H  -0.839590000  -1.284090000  -0.017130000
| 24> O   0.741530000  -1.752130000   2.896280000
| 25> H   0.920500000  -2.036450000   1.984040000
| 26> H   1.242140000  -0.921210000   2.984230000
| 27> O  -0.923410000   1.794470000  -2.768350000
| 28> H  -1.359750000   2.338250000  -3.430940000
| 29> H  -1.303000000   0.879480000  -2.865760000
| 30> O  -0.741530000   1.752130000   2.896280000
| 31> H  -0.920500000   2.036450000   1.984040000
| 32> H  -1.242140000   0.921210000   2.984230000
| 33> *
| 34>
| 35>                          ****END OF INPUT****

CARTESIAN COORDINATES (ANGSTROEM)
---------------------------------
  O      0.923410   -1.794470   -2.768350
  H      1.359750   -2.338250   -3.430940
  H      1.303000   -0.879480   -2.865760
  O     -0.885520    1.737840    0.052730
  H     -1.032320    2.090180   -0.841890
  H     -1.284090    0.839590    0.017130
  O     -1.737840   -0.885520   -0.052730
  H     -2.090180   -1.032320    0.841890
  H     -0.839590   -1.284090   -0.017130
  O      0.741530   -1.752130    2.896280
  H      0.920500   -2.036450    1.984040
  H      1.242140   -0.921210    2.984230
  O     -0.923410    1.794470   -2.768350
  H     -1.359750    2.338250   -3.430940
  H     -1.303000    0.879480   -2.865760
  O     -0.741530    1.752130    2.896280
  H     -0.920500    2.036450    1.984040
  H     -1.242140    0.921210    2.984230

 Total Charge           Charge          ....    0
 Multiplicity           Mult            ....    1
 Number of Electrons    NEL             ....   60
 Basis Dimension        Dim             ....  258

ORBITAL ENERGIES
----------------

  NO   OCC          E(Eh)            E(eV)
   0   2.0000     -20.597155      -560.4771
   1   2.0000     -20.589867      -560.2788
   2   2.0000     -20.579864      -560.0066
   3   2.0000     -20.567545      -559.6714
   4   2.0000     -20.523229      -558.4655
   5   2.0000     -20.521003      -558.4049
   6   2.0000      -1.377784       -37.4914
   7   2.0000      -1.367683       -37.2166
   8   2.0000      -1.355126       -36.8749
   9   2.0000      -1.346508       -36.6403
  10   2.0000      -1.312484       -35.7145
  11   2.0000      -1.300124       -35.3782
  12   2.0000      -0.736227       -20.0338
  13   2.0000      -0.734051       -19.9745
  14   2.0000      -0.723126       -19.6773
  15   2.0000      -0.709126       -19.2963
  16   2.0000      -0.692784       -18.8516
  17   2.0000      -0.669688       -18.2231
  18   2.0000      -0.621718       -16.9178
  19   2.0000      -0.604692       -16.4545
  20   2.0000      -0.592315       -16.1177
  21   2.0000      -0.584349       -15.9009
  22   2.0000      -0.571532       -15.5522
  23   2.0000      -0.543060       -14.7774
  24   2.0000      -0.531318       -14.4579
  25   2.0000      -0.523349       -14.2410
  26   2.0000      -0.514327       -13.9955
  27   2.0000      -0.511546       -13.9199
  28   2.0000      -0.475585       -12.9413
  29   2.0000      -0.466560       -12.6957
  30   0.0000       0.083691         2.2774
  31   0.0000       0.110036         2.9942
  32   0.0000       0.128200         3.4885
  33   0.0000       0.148701         4.0464
  34   0.0000       0.175330         4.7710

MULLIKEN ATOMIC CHARGES
-----------------------
   0 O :   -0.696315
   1 H :    0.345247
   2 H :    0.353400
   3 O :   -0.741573
   4 H :    0.367039
   5 H :    0.335267
   6 O :   -0.680874
   7 H :    0.357077
   8 H :    0.359379
   9 O :   -0.681547
  10 H :    0.326789
  11 H :    0.356386
  12 O :   -0.701006
  13 H :    0.349909
  14 H :    0.362970
  15 O :   -0.700453
  16 H :    0.376553
  17 H :    0.311752
Sum of atomic charges:   -0.0000000

LOEWDIN ATOMIC CHARGES
----------------------
   0 O :   -0.343127
   1 H :    0.161189
   2 H :    0.184102
   3 O :   -0.349293
   4 H :    0.148403
   5 H :    0.135842
   6 O :   -0.288085
   7 H :    0.171611
   8 H :    0.178343
   9 O :   -0.330571
  10 H :    0.158872
  11 H :    0.173319
  12 O :   -0.312727
  13 H :    0.162591
  14 H :    0.187213
  15 O :   -0.342829
  16 H :    0.153797
  17 H :    0.151350

  Mayer bond orders larger than 0.100000
B(  0-O ,  1-H ) :   0.8491 B(  0-O ,  2-H ) :   0.8364 B(  3-O ,  4-H ) :   0.8182
B(  3-O ,  5-H ) :   0.7959 B(  6-O ,  7-H ) :   0.8368 B(  6-O ,  8-H ) :   0.8294
B(  9-O , 10-H ) :   0.8572 B(  9-O , 11-H ) :   0.8369 B( 12-O , 13-H ) :   0.8429
B( 12-O , 14-H ) :   0.8269 B( 15-O , 16-H ) :   0.8080 B( 15-O , 17-H ) :   0.8644

MP2 TOTAL ENERGY:     -457.906380625 Eh
FINAL SINGLE POINT ENERGY      -457.906380625290

DIPOLE MOMENT
-------------
                                X             Y             Z
Electronic contribution:     -0.00012      -0.03470       0.02596
Nuclear contribution   :      0.00045      -0.90834      -2.63740
                        -----------------------------------------
Total Dipole Moment    :      0.00033      -0.94304      -2.61144
                        -----------------------------------------
Magnitude (a.u.)       :      2.77650
Magnitude (Debye)      :      7.05730

Rotational constants in cm-1:     0.042607     0.026328     0.018364
Rotational constants in MHz :  1277.322496   789.291602   550.525124

                             ****ORCA TERMINATED NORMALLY****
TOTAL RUN TIME: 0 days 0 hours 0 minutes 48 seconds 378 msec
