                         Program Version 3.0.3 - RELEASE   -
|  1> ! BP86 Def2-SVP TightSCF Opt D3BJ
|  2>
|  3> %pal nprocs 12 end
|  4>
|  5> %scf
|  6>         maxiter 800
|  7> end
|  8>
|  9> * xyz  0  1
| 10> O  3.15463791	0.59793845	-3.39891905
| 11> H  3.60724615	0.05700830	-2.75179294
| 12> H  3.85764545	1.01132843	-3.90003877
| 13> O  -2.37871365	0.18351347	-0.34492327
| 14> H  -2.01736819	-0.44906986	0.27596291
| 15> H  -3.18616006	0.49028819	0.06757088
| 16> O  -0.45992731	-0.53996764	-2.23615654
| 17> H  -1.29525274	-0.31650353	-1.82563604
| 18> H  0.11142490	0.20170045	-2.03686544
| 19> O  1.48212186	-1.54822893	-3.97730513
| 20> H  0.65813416	-1.25085998	-3.59149711
| 21> H  2.04669968	-0.77539811	-3.96259954
| 22> O  2.58728771	-3.22545595	-2.18272544
| 23> H  2.20066090	-2.71471709	-2.89399008
| 24> H  2.81351629	-4.06408006	-2.58492201
| 25> O  -4.31124643	1.17272419	1.36986588
| 26> H  -5.19817631	1.53095552	1.33440402
| 27> H  -3.76818398	1.90491621	1.66177317
| 28> O  0.40374088	0.72023890	2.26476654
| 29> H  -0.04098355	0.98646023	3.06948900
| 30> H  0.08627244	1.33274454	1.60122870
| 31> O  -3.08935115	-0.45007597	3.27544894
| 32> H  -2.53096326	-1.00726148	2.73325053
| 33> H  -3.65446983	0.00405992	2.65044229
| 34> O  -1.42552783	1.45243494	4.20677119
| 35> H  -2.03891301	0.75242253	3.98322455
| 36> H  -1.48216331	1.52598343	5.15945944
| 37> O  1.32520829	1.36946595	-1.47026663
| 38> H  1.94560311	1.32236042	-2.19767518
| 39> H  1.73824522	0.86490110	-0.76951941
| 40> O  -2.54335434	3.02761320	2.20002596
| 41> H  -1.85736019	3.01536448	1.53257272
| 42> H  -2.13175815	2.64372592	2.97426816
| 43> O  -1.14384807	-1.39057354	1.49721207
| 44> H  -0.54810070	-0.72342630	1.83813944
| 45> H  -0.58904848	-1.95542797	0.95928202
| 46> O  -0.67845193	2.22446219	0.27421931
| 47> H  0.00720728	2.22167979	-0.39368453
| 48> H  -1.31221692	1.57471176	-0.02975136
| 49> O  4.14080986	-1.02483562	-1.48866489
| 50> H  3.72534940	-0.75502908	-0.66962344
| 51> H  3.75877781	-1.88120011	-1.68081906
| 52> O  2.28033998	-0.29305493	0.46656043
| 53> H  1.87478785	0.05131003	1.26228154
| 54> H  1.74448264	-1.05096549	0.23276494
| 55> O  0.65010945	-2.27337344	-0.44991018
| 56> H  1.28211425	-2.79936921	-0.93994102
| 57> H  0.20248228	-1.75298100	-1.11703347
| 58> **                         ****END OF INPUT****
 Total Charge           Charge          ....    0
 Multiplicity           Mult            ....    1
 Number of Electrons    NEL             ....  160
Dispersion correction           -0.054977853
FINAL SINGLE POINT ENERGY     -1222.211624239912
Dispersion correction            ...
Dispersion correction           -0.054298565
FINAL SINGLE POINT ENERGY     -1222.242142144737
Dispersion correction            ...
Dispersion correction           -0.054488187
FINAL SINGLE POINT ENERGY     -1222.251522295877
Dispersion correction            ...
FINAL SINGLE POINT ENERGY     -1222.255627255816
FINAL SINGLE POINT ENERGY     -1222.258898390340
FINAL SINGLE POINT ENERGY     -1222.261689592144
FINAL SINGLE POINT ENERGY     -1222.263924626937
FINAL SINGLE POINT ENERGY     -1222.265540232363
FINAL SINGLE POINT ENERGY     -1222.266553542745
FINAL SINGLE POINT ENERGY     -1222.267045587634
FINAL SINGLE POINT ENERGY     -1222.268510314803
FINAL SINGLE POINT ENERGY     -1222.268534915069
FINAL SINGLE POINT ENERGY     -1222.268559989619
FINAL SINGLE POINT ENERGY     -1222.268583731312
FINAL SINGLE POINT ENERGY     -1222.268604222720
FINAL SINGLE POINT ENERGY     -1222.268619261233
FINAL SINGLE POINT ENERGY     -1222.268634171136
Dispersion correction            ...
Dispersion correction           -0.058800556
FINAL SINGLE POINT ENERGY     -1222.268647975741
Dispersion correction            ...
Dispersion correction           -0.058788598
FINAL SINGLE POINT ENERGY     -1222.268660513403
Dispersion correction            ...
                    ***********************HURRAY********************

CARTESIAN COORDINATES (ANGSTROEM)
---------------------------------
  O      2.998958    0.510510   -3.197062
  H      3.521012   -0.065511   -2.494855
  H      3.678480    0.947449   -3.742386
  O     -2.251660    0.172326   -0.376611
  H     -1.880394   -0.475566    0.313349
  H     -3.109474    0.480148    0.037896
  O     -0.437804   -0.551660   -2.173738
  H     -1.321743   -0.308181   -1.780758
  H      0.156301    0.237316   -1.933861
  O      1.373132   -1.549507   -3.929290
  H      0.529044   -1.239433   -3.501555
  H      1.963961   -0.745730   -3.862571
  O      2.435285   -3.007246   -2.112464
  H      1.997812   -2.481976   -2.906035
  H      2.673789   -3.883090   -2.467134
  O     -4.051709    1.108132    1.331190
  H     -4.972220    1.417837    1.248978
  H     -3.489158    1.943686    1.615868
  O      0.448564    0.664142    2.175015
  H     -0.013520    0.945657    3.017030
  H      0.077972    1.312900    1.486128
  O     -2.992611   -0.517858    3.249225
  H     -2.406331   -1.086770    2.680414
  H     -3.550674   -0.024802    2.583124
  O     -1.411290    1.371059    3.945850
  H     -2.068113    0.578481    3.753848
  H     -1.416395    1.505271    4.911271
  O      1.227243    1.362464   -1.404589
  H      1.891405    1.336765   -2.153204
  H      1.674987    0.802335   -0.683548
  O     -2.517409    3.017098    2.075880
  H     -1.794946    3.007534    1.391781
  H     -2.088528    2.573244    2.862188
  O     -1.123656   -1.354423    1.476893
  H     -0.475124   -0.639391    1.795487
  H     -0.551735   -1.972677    0.943760
  O     -0.650582    2.181502    0.296533
  H      0.043152    2.220533   -0.418387
  H     -1.291454    1.462867   -0.027980
  O      4.100485   -0.965010   -1.419145
  H      3.656898   -0.673909   -0.577144
  H      3.649929   -1.834018   -1.621026
  O      2.244519   -0.258311    0.431339
  H      1.869542    0.085084    1.287474
  H      1.642226   -1.045751    0.205698
  O      0.609625   -2.184374   -0.362869
  H      1.244204   -2.754167   -0.887656
  H      0.161369   -1.626524   -1.085626

 Multiplicity           Mult            ....    1
 Number of Electrons    NEL             ....  160
 Basis Dimension        Dim             ....  384

ORBITAL ENERGIES
----------------

  NO   OCC          E(Eh)            E(eV)
   0   2.0000     -18.790330      -511.3109
   1   2.0000     -18.790187      -511.3070
   2   2.0000     -18.789793      -511.2963
   3   2.0000     -18.789252      -511.2815
   4   2.0000     -18.776172      -510.9256
   5   2.0000     -18.776128      -510.9244
   6   2.0000     -18.776004      -510.9210
   7   2.0000     -18.775267      -510.9010
   8   2.0000     -18.775166      -510.8982
   9   2.0000     -18.774879      -510.8904
  10   2.0000     -18.774866      -510.8901
  11   2.0000     -18.774580      -510.8823
  12   2.0000     -18.768597      -510.7195
  13   2.0000     -18.768514      -510.7172
  14   2.0000     -18.768339      -510.7125
  15   2.0000     -18.768185      -510.7083
  16   2.0000      -0.932478       -25.3740
  17   2.0000      -0.926566       -25.2131
  18   2.0000      -0.916612       -24.9423
  19   2.0000      -0.915049       -24.8997
  20   2.0000      -0.914681       -24.8897
  21   2.0000      -0.905958       -24.6524
  22   2.0000      -0.905346       -24.6357
  23   2.0000      -0.905029       -24.6271
  24   2.0000      -0.893474       -24.3127
  25   2.0000      -0.893270       -24.3071
  26   2.0000      -0.889861       -24.2144
  27   2.0000      -0.884657       -24.0727
  28   2.0000      -0.884614       -24.0716
  29   2.0000      -0.884360       -24.0647
  30   2.0000      -0.875558       -23.8252
  31   2.0000      -0.865672       -23.5561
  32   2.0000      -0.491214       -13.3666
  33   2.0000      -0.489097       -13.3090
  34   2.0000      -0.488965       -13.3054
  35   2.0000      -0.487410       -13.2631
  36   2.0000      -0.483193       -13.1483
  37   2.0000      -0.478294       -13.0150
  38   2.0000      -0.477469       -12.9926
  39   2.0000      -0.476188       -12.9577
  40   2.0000      -0.466223       -12.6866
  41   2.0000      -0.462688       -12.5904
  42   2.0000      -0.462413       -12.5829
  43   2.0000      -0.458255       -12.4697
  44   2.0000      -0.457086       -12.4379
  45   2.0000      -0.452284       -12.3073
  46   2.0000      -0.451475       -12.2853
  47   2.0000      -0.450497       -12.2586
  48   2.0000      -0.416852       -11.3431
  49   2.0000      -0.397495       -10.8164
  50   2.0000      -0.377931       -10.2840
  51   2.0000      -0.376089       -10.2339
  52   2.0000      -0.371272       -10.1028
  53   2.0000      -0.362437        -9.8624
  54   2.0000      -0.356869        -9.7109
  55   2.0000      -0.351691        -9.5700
  56   2.0000      -0.340477        -9.2648
  57   2.0000      -0.339202        -9.2301
  58   2.0000      -0.335074        -9.1178
  59   2.0000      -0.331651        -9.0247
  60   2.0000      -0.316947        -8.6246
  61   2.0000      -0.313857        -8.5405
  62   2.0000      -0.303270        -8.2524
  63   2.0000      -0.286080        -7.7846
  64   2.0000      -0.275885        -7.5072
  65   2.0000      -0.273913        -7.4536
  66   2.0000      -0.273337        -7.4379
  67   2.0000      -0.271475        -7.3872
  68   2.0000      -0.267839        -7.2883
  69   2.0000      -0.266924        -7.2634
  70   2.0000      -0.264172        -7.1885
  71   2.0000      -0.263837        -7.1794
  72   2.0000      -0.263393        -7.1673
  73   2.0000      -0.261868        -7.1258
  74   2.0000      -0.258923        -7.0457
  75   2.0000      -0.257405        -7.0044
  76   2.0000      -0.254305        -6.9200
  77   2.0000      -0.254067        -6.9135
  78   2.0000      -0.253428        -6.8961
  79   2.0000      -0.252978        -6.8839
  80   0.0000       0.003333         0.0907
  81   0.0000       0.017247         0.4693
  82   0.0000       0.035689         0.9711
  83   0.0000       0.036177         0.9844
  84   0.0000       0.053937         1.4677

MULLIKEN ATOMIC CHARGES
-----------------------
   0 O :   -0.339262
   1 H :    0.167190
   2 H :    0.184796
   3 O :   -0.329127
   4 H :    0.137044
   5 H :    0.169978
   6 O :   -0.325491
   7 H :    0.184804
   8 H :    0.131171
   9 O :   -0.307485
  10 H :    0.173809
  11 H :    0.148497
  12 O :   -0.342462
  13 H :    0.169022
  14 H :    0.186107
  15 O :   -0.340567
  16 H :    0.186030
  17 H :    0.168318
  18 O :   -0.327364
  19 H :    0.165764
  20 H :    0.137618
  21 O :   -0.305197
  22 H :    0.173312
  23 H :    0.150763
  24 O :   -0.336870
  25 H :    0.165832
  26 H :    0.185954
  27 O :   -0.327124
  28 H :    0.169722
  29 H :    0.135161
  30 O :   -0.305783
  31 H :    0.172325
  32 H :    0.148495
  33 O :   -0.326239
  34 H :    0.134087
  35 H :    0.186130
  36 O :   -0.325725
  37 H :    0.186632
  38 H :    0.131734
  39 O :   -0.307521
  40 H :    0.172636
  41 H :    0.151926
  42 O :   -0.323810
  43 H :    0.185386
  44 H :    0.133838
  45 O :   -0.328698
  46 H :    0.169721
  47 H :    0.134922
Sum of atomic charges:   -0.0000000

LOEWDIN ATOMIC CHARGES
----------------------
   0 O :   -0.103033
   1 H :    0.030084
   2 H :    0.086431
   3 O :   -0.093393
   4 H :    0.027933
   5 H :    0.042652
   6 O :   -0.090773
   7 H :    0.054704
   8 H :    0.026173
   9 O :   -0.080291
  10 H :    0.053480
  11 H :    0.040597
  12 O :   -0.103271
  13 H :    0.030869
  14 H :    0.086848
  15 O :   -0.101879
  16 H :    0.087212
  17 H :    0.030746
  18 O :   -0.095419
  19 H :    0.042976
  20 H :    0.027933
  21 O :   -0.078406
  22 H :    0.053412
  23 H :    0.040973
  24 O :   -0.101065
  25 H :    0.030442
  26 H :    0.086880
  27 O :   -0.093775
  28 H :    0.044227
  29 H :    0.027283
  30 O :   -0.079030
  31 H :    0.053433
  32 H :    0.039981
  33 O :   -0.089624
  34 H :    0.027015
  35 H :    0.055929
  36 O :   -0.090310
  37 H :    0.056560
  38 H :    0.026693
  39 O :   -0.078901
  40 H :    0.053261
  41 H :    0.041550
  42 O :   -0.088314
  43 H :    0.056555
  44 H :    0.026882
  45 O :   -0.093877
  46 H :    0.043847
  47 H :    0.027797

  Mayer bond orders larger than 0.1
B(  0-O ,  1-H ) :   0.7670 B(  0-O ,  2-H ) :   0.9759 B(  0-O , 11-H ) :   0.1897
B(  0-O , 28-H ) :   0.1894 B(  1-H , 39-O ) :   0.3065 B(  3-O ,  4-H ) :   0.8298
B(  3-O ,  5-H ) :   0.8743 B(  3-O ,  7-H ) :   0.1601 B(  3-O , 38-H ) :   0.2556
B(  4-H , 33-O ) :   0.2546 B(  5-H , 15-O ) :   0.1946 B(  6-O ,  7-H ) :   0.8895
B(  6-O ,  8-H ) :   0.8280 B(  6-O , 10-H ) :   0.1517 B(  6-O , 47-H ) :   0.2541
B(  8-H , 27-O ) :   0.2594 B(  9-O , 10-H ) :   0.9096 B(  9-O , 11-H ) :   0.8970
B(  9-O , 13-H ) :   0.3072 B( 12-O , 13-H ) :   0.7655 B( 12-O , 14-H ) :   0.9749
B( 12-O , 41-H ) :   0.1870 B( 12-O , 46-H ) :   0.1910 B( 15-O , 16-H ) :   0.9749
B( 15-O , 17-H ) :   0.7671 B( 15-O , 23-H ) :   0.1866 B( 17-H , 30-O ) :   0.3067
B( 18-O , 19-H ) :   0.8775 B( 18-O , 20-H ) :   0.8316 B( 18-O , 34-H ) :   0.2577
B( 18-O , 43-H ) :   0.1543 B( 19-H , 24-O ) :   0.1934 B( 20-H , 36-O ) :   0.2531
B( 21-O , 22-H ) :   0.9112 B( 21-O , 23-H ) :   0.8980 B( 21-O , 25-H ) :   0.3084
B( 22-H , 33-O ) :   0.1496 B( 24-O , 25-H ) :   0.7671 B( 24-O , 26-H ) :   0.9756
B( 24-O , 32-H ) :   0.1911 B( 27-O , 28-H ) :   0.8777 B( 27-O , 29-H ) :   0.8303
B( 27-O , 37-H ) :   0.1535 B( 29-H , 42-O ) :   0.2519 B( 30-O , 31-H ) :   0.9132
B( 30-O , 32-H ) :   0.8958 B( 31-H , 36-O ) :   0.1494 B( 33-O , 34-H ) :   0.8276
B( 33-O , 35-H ) :   0.8929 B( 35-H , 45-O ) :   0.1548 B( 36-O , 37-H ) :   0.8931
B( 36-O , 38-H ) :   0.8288 B( 39-O , 40-H ) :   0.9110 B( 39-O , 41-H ) :   0.8974
B( 40-H , 42-O ) :   0.1513 B( 42-O , 43-H ) :   0.8945 B( 42-O , 44-H ) :   0.8285
B( 44-H , 45-O ) :   0.2587 B( 45-O , 46-H ) :   0.8763 B( 45-O , 47-H ) :   0.8292

Dispersion correction           -0.058777060
FINAL SINGLE POINT ENERGY     -1222.268670369026

DIPOLE MOMENT
-------------
                                X             Y             Z
Electronic contribution:     -0.00946      -0.00449       0.02938
Nuclear contribution   :      0.00008       0.00160      -0.01810
                        -----------------------------------------
Total Dipole Moment    :     -0.00938      -0.00290       0.01128
                        -----------------------------------------
Magnitude (a.u.)       :      0.01495
Magnitude (Debye)      :      0.03801

                             ****ORCA TERMINATED NORMALLY****
TOTAL RUN TIME: 0 days 0 hours 28 minutes 31 seconds 343 msec
