                         Program Version 4.2.0 -  RELEASE  -
|  1> # 12h2o.su.etal.mol3,5,7,8,11
|  2> ! MP2 def2-TZVP EnGrad TightSCF
|  3>
|  4> %pal
|  5>     nprocs 6
|  6> end
|  7>
|  8> %maxcore 8000
|  9>
| 10> %scf
| 11>     ConvForced true
| 12> end
| 13>
| 14> *xyz 0 1
| 15> O  -1.752130000  -0.741530000  -2.896280000
| 16> H  -2.036450000  -0.920500000  -1.984040000
| 17> H  -0.921210000  -1.242140000  -2.984230000
| 18> O   0.885520000  -1.737840000   0.052730000
| 19> H   1.284090000  -0.839590000   0.017130000
| 20> H   1.032320000  -2.090180000  -0.841890000
| 21> O  -1.737840000  -0.885520000  -0.052730000
| 22> H  -2.090180000  -1.032320000   0.841890000
| 23> H  -0.839590000  -1.284090000  -0.017130000
| 24> O   1.752130000   0.741530000  -2.896280000
| 25> H   2.036450000   0.920500000  -1.984040000
| 26> H   0.921210000   1.242140000  -2.984230000
| 27> O  -0.741530000   1.752130000   2.896280000
| 28> H  -0.920500000   2.036450000   1.984040000
| 29> H  -1.242140000   0.921210000   2.984230000
| 30> *
| 31>
| 32>                          ****END OF INPUT****

CARTESIAN COORDINATES (ANGSTROEM)
---------------------------------
  O     -1.752130   -0.741530   -2.896280
  H     -2.036450   -0.920500   -1.984040
  H     -0.921210   -1.242140   -2.984230
  O      0.885520   -1.737840    0.052730
  H      1.284090   -0.839590    0.017130
  H      1.032320   -2.090180   -0.841890
  O     -1.737840   -0.885520   -0.052730
  H     -2.090180   -1.032320    0.841890
  H     -0.839590   -1.284090   -0.017130
  O      1.752130    0.741530   -2.896280
  H      2.036450    0.920500   -1.984040
  H      0.921210    1.242140   -2.984230
  O     -0.741530    1.752130    2.896280
  H     -0.920500    2.036450    1.984040
  H     -1.242140    0.921210    2.984230

 Total Charge           Charge          ....    0
 Multiplicity           Mult            ....    1
 Number of Electrons    NEL             ....   50
 Basis Dimension        Dim             ....  215

ORBITAL ENERGIES
----------------

  NO   OCC          E(Eh)            E(eV)
   0   2.0000     -20.616263      -560.9970
   1   2.0000     -20.579963      -560.0093
   2   2.0000     -20.571372      -559.7755
   3   2.0000     -20.569757      -559.7315
   4   2.0000     -20.539089      -558.8970
   5   2.0000      -1.397057       -38.0159
   6   2.0000      -1.358890       -36.9773
   7   2.0000      -1.353018       -36.8175
   8   2.0000      -1.350452       -36.7477
   9   2.0000      -1.320365       -35.9290
  10   2.0000      -0.754384       -20.5278
  11   2.0000      -0.727090       -19.7851
  12   2.0000      -0.721466       -19.6321
  13   2.0000      -0.713328       -19.4106
  14   2.0000      -0.689705       -18.7678
  15   2.0000      -0.638317       -17.3695
  16   2.0000      -0.602774       -16.4023
  17   2.0000      -0.596351       -16.2275
  18   2.0000      -0.587862       -15.9965
  19   2.0000      -0.559537       -15.2258
  20   2.0000      -0.545735       -14.8502
  21   2.0000      -0.523933       -14.2569
  22   2.0000      -0.518062       -14.0972
  23   2.0000      -0.514900       -14.0112
  24   2.0000      -0.484992       -13.1973
  25   0.0000       0.068693         1.8692
  26   0.0000       0.105423         2.8687
  27   0.0000       0.128854         3.5063
  28   0.0000       0.157778         4.2934
  29   0.0000       0.169452         4.6110

MULLIKEN ATOMIC CHARGES
-----------------------
   0 O :   -0.695181
   1 H :    0.373959
   2 H :    0.314930
   3 O :   -0.675042
   4 H :    0.353636
   5 H :    0.361338
   6 O :   -0.722973
   7 H :    0.335089
   8 H :    0.353675
   9 O :   -0.677451
  10 H :    0.323670
  11 H :    0.355656
  12 O :   -0.672282
  13 H :    0.339471
  14 H :    0.331503
Sum of atomic charges:   -0.0000000

LOEWDIN ATOMIC CHARGES
----------------------
   0 O :   -0.338492
   1 H :    0.153920
   2 H :    0.153163
   3 O :   -0.283978
   4 H :    0.177345
   5 H :    0.173681
   6 O :   -0.339790
   7 H :    0.160869
   8 H :    0.142708
   9 O :   -0.328687
  10 H :    0.157649
  11 H :    0.173020
  12 O :   -0.330105
  13 H :    0.165514
  14 H :    0.163184

  Mayer bond orders larger than 0.100000
B(  0-O ,  1-H ) :   0.8154 B(  0-O ,  2-H ) :   0.8625 B(  3-O ,  4-H ) :   0.8351
B(  3-O ,  5-H ) :   0.8340 B(  6-O ,  7-H ) :   0.8505 B(  6-O ,  8-H ) :   0.7819
B(  9-O , 10-H ) :   0.8589 B(  9-O , 11-H ) :   0.8374 B( 12-O , 13-H ) :   0.8510
B( 12-O , 14-H ) :   0.8556

MP2 TOTAL ENERGY:     -381.583909450 Eh
FINAL SINGLE POINT ENERGY      -381.583909449593

DIPOLE MOMENT
-------------
                                X             Y             Z
Electronic contribution:      0.15928       0.02244       0.00186
Nuclear contribution   :      0.34268      -0.45452       0.68611
                        -----------------------------------------
Total Dipole Moment    :      0.50196      -0.43208       0.68797
                        -----------------------------------------
Magnitude (a.u.)       :      0.95496
Magnitude (Debye)      :      2.42732

Rotational constants in cm-1:     0.057937     0.030684     0.026741
Rotational constants in MHz :  1736.893634   919.881682   801.662460

                             ****ORCA TERMINATED NORMALLY****
TOTAL RUN TIME: 0 days 0 hours 1 minutes 9 seconds 724 msec
