                         Program Version 4.2.0 -  RELEASE  -
|  1> # 12h2o.su.etal.mol0,2,3,4,6,8,10
|  2> ! MP2 def2-TZVP EnGrad TightSCF
|  3>
|  4> %pal
|  5>     nprocs 6
|  6> end
|  7>
|  8> %maxcore 8000
|  9>
| 10> %scf
| 11>     ConvForced true
| 12> end
| 13>
| 14> *xyz 0 1
| 15> O   1.794470000   0.923410000   2.768350000
| 16> H   2.338250000   1.359750000   3.430940000
| 17> H   0.879480000   1.303000000   2.865760000
| 18> O   0.923410000  -1.794470000  -2.768350000
| 19> H   1.359750000  -2.338250000  -3.430940000
| 20> H   1.303000000  -0.879480000  -2.865760000
| 21> O  -1.752130000  -0.741530000  -2.896280000
| 22> H  -2.036450000  -0.920500000  -1.984040000
| 23> H  -0.921210000  -1.242140000  -2.984230000
| 24> O  -0.885520000   1.737840000   0.052730000
| 25> H  -1.032320000   2.090180000  -0.841890000
| 26> H  -1.284090000   0.839590000   0.017130000
| 27> O   1.737840000   0.885520000  -0.052730000
| 28> H   2.090180000   1.032320000   0.841890000
| 29> H   0.839590000   1.284090000  -0.017130000
| 30> O   1.752130000   0.741530000  -2.896280000
| 31> H   2.036450000   0.920500000  -1.984040000
| 32> H   0.921210000   1.242140000  -2.984230000
| 33> O  -0.923410000   1.794470000  -2.768350000
| 34> H  -1.359750000   2.338250000  -3.430940000
| 35> H  -1.303000000   0.879480000  -2.865760000
| 36> *
| 37>
| 38>                          ****END OF INPUT****

CARTESIAN COORDINATES (ANGSTROEM)
---------------------------------
  O      1.794470    0.923410    2.768350
  H      2.338250    1.359750    3.430940
  H      0.879480    1.303000    2.865760
  O      0.923410   -1.794470   -2.768350
  H      1.359750   -2.338250   -3.430940
  H      1.303000   -0.879480   -2.865760
  O     -1.752130   -0.741530   -2.896280
  H     -2.036450   -0.920500   -1.984040
  H     -0.921210   -1.242140   -2.984230
  O     -0.885520    1.737840    0.052730
  H     -1.032320    2.090180   -0.841890
  H     -1.284090    0.839590    0.017130
  O      1.737840    0.885520   -0.052730
  H      2.090180    1.032320    0.841890
  H      0.839590    1.284090   -0.017130
  O      1.752130    0.741530   -2.896280
  H      2.036450    0.920500   -1.984040
  H      0.921210    1.242140   -2.984230
  O     -0.923410    1.794470   -2.768350
  H     -1.359750    2.338250   -3.430940
  H     -1.303000    0.879480   -2.865760

 Total Charge           Charge          ....    0
 Multiplicity           Mult            ....    1
 Number of Electrons    NEL             ....   70
 Basis Dimension        Dim             ....  301

ORBITAL ENERGIES
----------------

  NO   OCC          E(Eh)            E(eV)
   0   2.0000     -20.581942      -560.0631
   1   2.0000     -20.579543      -559.9978
   2   2.0000     -20.574079      -559.8491
   3   2.0000     -20.573094      -559.8223
   4   2.0000     -20.533517      -558.7454
   5   2.0000     -20.533182      -558.7363
   6   2.0000     -20.515900      -558.2660
   7   2.0000      -1.375652       -37.4334
   8   2.0000      -1.361124       -37.0381
   9   2.0000      -1.359387       -36.9908
  10   2.0000      -1.350890       -36.7596
  11   2.0000      -1.331347       -36.2278
  12   2.0000      -1.311186       -35.6792
  13   2.0000      -1.299994       -35.3746
  14   2.0000      -0.739013       -20.1096
  15   2.0000      -0.729927       -19.8623
  16   2.0000      -0.726832       -19.7781
  17   2.0000      -0.720602       -19.6086
  18   2.0000      -0.696094       -18.9417
  19   2.0000      -0.693860       -18.8809
  20   2.0000      -0.680373       -18.5139
  21   2.0000      -0.633882       -17.2488
  22   2.0000      -0.607299       -16.5254
  23   2.0000      -0.597780       -16.2664
  24   2.0000      -0.586978       -15.9725
  25   2.0000      -0.582818       -15.8593
  26   2.0000      -0.560991       -15.2653
  27   2.0000      -0.541129       -14.7249
  28   2.0000      -0.522406       -14.2154
  29   2.0000      -0.519217       -14.1286
  30   2.0000      -0.517065       -14.0701
  31   2.0000      -0.504479       -13.7276
  32   2.0000      -0.484684       -13.1889
  33   2.0000      -0.479467       -13.0470
  34   2.0000      -0.467113       -12.7108
  35   0.0000       0.096868         2.6359
  36   0.0000       0.121087         3.2949
  37   0.0000       0.145534         3.9602
  38   0.0000       0.161832         4.4037
  39   0.0000       0.184282         5.0146

MULLIKEN ATOMIC CHARGES
-----------------------
   0 O :   -0.692889
   1 H :    0.347511
   2 H :    0.357748
   3 O :   -0.744863
   4 H :    0.336576
   5 H :    0.386297
   6 O :   -0.704168
   7 H :    0.343361
   8 H :    0.384915
   9 O :   -0.695806
  10 H :    0.382762
  11 H :    0.334049
  12 O :   -0.745074
  13 H :    0.366136
  14 H :    0.343732
  15 O :   -0.728184
  16 H :    0.390305
  17 H :    0.360546
  18 O :   -0.756974
  19 H :    0.353351
  20 H :    0.380668
Sum of atomic charges:    0.0000000

LOEWDIN ATOMIC CHARGES
----------------------
   0 O :   -0.310228
   1 H :    0.161334
   2 H :    0.186230
   3 O :   -0.341557
   4 H :    0.153609
   5 H :    0.146437
   6 O :   -0.280586
   7 H :    0.165113
   8 H :    0.157316
   9 O :   -0.299851
  10 H :    0.153675
  11 H :    0.167387
  12 O :   -0.349247
  13 H :    0.148660
  14 H :    0.137805
  15 O :   -0.291124
  16 H :    0.158516
  17 H :    0.145890
  18 O :   -0.315172
  19 H :    0.160353
  20 H :    0.145442

  Mayer bond orders larger than 0.100000
B(  0-O ,  1-H ) :   0.8445 B(  0-O ,  2-H ) :   0.8324 B(  3-O ,  4-H ) :   0.8505
B(  3-O ,  5-H ) :   0.7372 B(  5-H , 15-O ) :   0.1177 B(  6-O ,  7-H ) :   0.8459
B(  6-O ,  8-H ) :   0.7679 B(  6-O , 20-H ) :   0.1144 B(  9-O , 10-H ) :   0.7954
B(  9-O , 11-H ) :   0.8478 B( 12-O , 13-H ) :   0.8183 B( 12-O , 14-H ) :   0.7888
B( 15-O , 16-H ) :   0.7905 B( 15-O , 17-H ) :   0.8100 B( 18-O , 19-H ) :   0.8391
B( 18-O , 20-H ) :   0.7336

MP2 TOTAL ENERGY:     -534.268303444 Eh
FINAL SINGLE POINT ENERGY      -534.268303443578

DIPOLE MOMENT
-------------
                                X             Y             Z
Electronic contribution:      0.10440      -0.04172       0.04549
Nuclear contribution   :     -1.21732       0.67870       0.73962
                        -----------------------------------------
Total Dipole Moment    :     -1.11292       0.63698       0.78511
                        -----------------------------------------
Magnitude (a.u.)       :      1.50357
Magnitude (Debye)      :      3.82176

Rotational constants in cm-1:     0.048098     0.022498     0.019563
Rotational constants in MHz :  1441.950201   674.482930   586.479547

                             ****ORCA TERMINATED NORMALLY****
TOTAL RUN TIME: 0 days 0 hours 2 minutes 4 seconds 772 msec
