                         Program Version 4.2.0 -  RELEASE  -
|  1> # 12h2o.su.etal.mol0,2,3,5,6,8,10,11
|  2> ! MP2 def2-TZVP EnGrad TightSCF
|  3>
|  4> %pal
|  5>     nprocs 6
|  6> end
|  7>
|  8> %maxcore 8000
|  9>
| 10> %scf
| 11>     ConvForced true
| 12> end
| 13>
| 14> *xyz 0 1
| 15> O   1.794470000   0.923410000   2.768350000
| 16> H   2.338250000   1.359750000   3.430940000
| 17> H   0.879480000   1.303000000   2.865760000
| 18> O   0.923410000  -1.794470000  -2.768350000
| 19> H   1.359750000  -2.338250000  -3.430940000
| 20> H   1.303000000  -0.879480000  -2.865760000
| 21> O  -1.752130000  -0.741530000  -2.896280000
| 22> H  -2.036450000  -0.920500000  -1.984040000
| 23> H  -0.921210000  -1.242140000  -2.984230000
| 24> O   0.885520000  -1.737840000   0.052730000
| 25> H   1.284090000  -0.839590000   0.017130000
| 26> H   1.032320000  -2.090180000  -0.841890000
| 27> O   1.737840000   0.885520000  -0.052730000
| 28> H   2.090180000   1.032320000   0.841890000
| 29> H   0.839590000   1.284090000  -0.017130000
| 30> O   1.752130000   0.741530000  -2.896280000
| 31> H   2.036450000   0.920500000  -1.984040000
| 32> H   0.921210000   1.242140000  -2.984230000
| 33> O  -0.923410000   1.794470000  -2.768350000
| 34> H  -1.359750000   2.338250000  -3.430940000
| 35> H  -1.303000000   0.879480000  -2.865760000
| 36> O  -0.741530000   1.752130000   2.896280000
| 37> H  -0.920500000   2.036450000   1.984040000
| 38> H  -1.242140000   0.921210000   2.984230000
| 39> *
| 40>
| 41>                          ****END OF INPUT****

CARTESIAN COORDINATES (ANGSTROEM)
---------------------------------
  O      1.794470    0.923410    2.768350
  H      2.338250    1.359750    3.430940
  H      0.879480    1.303000    2.865760
  O      0.923410   -1.794470   -2.768350
  H      1.359750   -2.338250   -3.430940
  H      1.303000   -0.879480   -2.865760
  O     -1.752130   -0.741530   -2.896280
  H     -2.036450   -0.920500   -1.984040
  H     -0.921210   -1.242140   -2.984230
  O      0.885520   -1.737840    0.052730
  H      1.284090   -0.839590    0.017130
  H      1.032320   -2.090180   -0.841890
  O      1.737840    0.885520   -0.052730
  H      2.090180    1.032320    0.841890
  H      0.839590    1.284090   -0.017130
  O      1.752130    0.741530   -2.896280
  H      2.036450    0.920500   -1.984040
  H      0.921210    1.242140   -2.984230
  O     -0.923410    1.794470   -2.768350
  H     -1.359750    2.338250   -3.430940
  H     -1.303000    0.879480   -2.865760
  O     -0.741530    1.752130    2.896280
  H     -0.920500    2.036450    1.984040
  H     -1.242140    0.921210    2.984230

 Total Charge           Charge          ....    0
 Multiplicity           Mult            ....    1
 Number of Electrons    NEL             ....   80
 Basis Dimension        Dim             ....  344

ORBITAL ENERGIES
----------------

  NO   OCC          E(Eh)            E(eV)
   0   2.0000     -20.616396      -561.0007
   1   2.0000     -20.580133      -560.0139
   2   2.0000     -20.570611      -559.7548
   3   2.0000     -20.555606      -559.3465
   4   2.0000     -20.555478      -559.3430
   5   2.0000     -20.553837      -559.2983
   6   2.0000     -20.548718      -559.1590
   7   2.0000     -20.495771      -557.7183
   8   2.0000      -1.401900       -38.1476
   9   2.0000      -1.368769       -37.2461
  10   2.0000      -1.364176       -37.1211
  11   2.0000      -1.348861       -36.7044
  12   2.0000      -1.338531       -36.4233
  13   2.0000      -1.337550       -36.3966
  14   2.0000      -1.327289       -36.1174
  15   2.0000      -1.280118       -34.8338
  16   2.0000      -0.758892       -20.6505
  17   2.0000      -0.731613       -19.9082
  18   2.0000      -0.726207       -19.7611
  19   2.0000      -0.724716       -19.7205
  20   2.0000      -0.720857       -19.6155
  21   2.0000      -0.714770       -19.4499
  22   2.0000      -0.702996       -19.1295
  23   2.0000      -0.664991       -18.0953
  24   2.0000      -0.641880       -17.4664
  25   2.0000      -0.628214       -17.0946
  26   2.0000      -0.610589       -16.6150
  27   2.0000      -0.592878       -16.1330
  28   2.0000      -0.586660       -15.9638
  29   2.0000      -0.577559       -15.7162
  30   2.0000      -0.563838       -15.3428
  31   2.0000      -0.544561       -14.8183
  32   2.0000      -0.537653       -14.6303
  33   2.0000      -0.512106       -13.9351
  34   2.0000      -0.509337       -13.8598
  35   2.0000      -0.505209       -13.7474
  36   2.0000      -0.503578       -13.7030
  37   2.0000      -0.495101       -13.4724
  38   2.0000      -0.492043       -13.3892
  39   2.0000      -0.446796       -12.1579
  40   0.0000       0.080673         2.1952
  41   0.0000       0.126512         3.4426
  42   0.0000       0.149855         4.0777
  43   0.0000       0.153386         4.1738
  44   0.0000       0.159479         4.3396

MULLIKEN ATOMIC CHARGES
-----------------------
   0 O :   -0.730322
   1 H :    0.340843
   2 H :    0.369944
   3 O :   -0.755221
   4 H :    0.346575
   5 H :    0.382494
   6 O :   -0.709847
   7 H :    0.354086
   8 H :    0.381697
   9 O :   -0.741480
  10 H :    0.347725
  11 H :    0.356627
  12 O :   -0.722726
  13 H :    0.391705
  14 H :    0.336400
  15 O :   -0.725712
  16 H :    0.386152
  17 H :    0.368136
  18 O :   -0.750021
  19 H :    0.343322
  20 H :    0.379185
  21 O :   -0.677086
  22 H :    0.354708
  23 H :    0.372816
Sum of atomic charges:   -0.0000000

LOEWDIN ATOMIC CHARGES
----------------------
   0 O :   -0.334988
   1 H :    0.156327
   2 H :    0.143673
   3 O :   -0.315867
   4 H :    0.157049
   5 H :    0.146042
   6 O :   -0.283633
   7 H :    0.170932
   8 H :    0.155098
   9 O :   -0.373783
  10 H :    0.135567
  11 H :    0.141305
  12 O :   -0.284442
  13 H :    0.158374
  14 H :    0.167366
  15 O :   -0.288078
  16 H :    0.155509
  17 H :    0.149378
  18 O :   -0.345728
  19 H :    0.156527
  20 H :    0.144700
  21 O :   -0.266435
  22 H :    0.171815
  23 H :    0.183290

  Mayer bond orders larger than 0.100000
B(  0-O ,  1-H ) :   0.8487 B(  0-O ,  2-H ) :   0.7702 B(  3-O ,  4-H ) :   0.8422
B(  3-O ,  5-H ) :   0.7274 B(  5-H , 15-O ) :   0.1220 B(  6-O ,  7-H ) :   0.8380
B(  6-O ,  8-H ) :   0.7833 B(  6-O , 20-H ) :   0.1125 B(  9-O , 10-H ) :   0.8121
B(  9-O , 11-H ) :   0.8266 B( 12-O , 13-H ) :   0.7802 B( 12-O , 14-H ) :   0.8394
B( 15-O , 16-H ) :   0.8043 B( 15-O , 17-H ) :   0.7938 B( 18-O , 19-H ) :   0.8474
B( 18-O , 20-H ) :   0.7469 B( 21-O , 22-H ) :   0.8389 B( 21-O , 23-H ) :   0.8274

MP2 TOTAL ENERGY:     -610.589735719 Eh
FINAL SINGLE POINT ENERGY      -610.589735719262

DIPOLE MOMENT
-------------
                                X             Y             Z
Electronic contribution:     -0.03283       0.09131       0.30144
Nuclear contribution   :     -0.87509       1.13252       0.05351
                        -----------------------------------------
Total Dipole Moment    :     -0.90792       1.22383       0.35495
                        -----------------------------------------
Magnitude (a.u.)       :      1.56463
Magnitude (Debye)      :      3.97698

Rotational constants in cm-1:     0.036422     0.016198     0.014832
Rotational constants in MHz :  1091.910960   485.590259   444.662996

                             ****ORCA TERMINATED NORMALLY****
TOTAL RUN TIME: 0 days 0 hours 3 minutes 5 seconds 880 msec
