                         Program Version 4.2.0 -  RELEASE  -
|  1> # 12h2o.su.etal.mol0,3,5,7,8
|  2> ! MP2 def2-TZVP EnGrad TightSCF
|  3>
|  4> %pal
|  5>     nprocs 6
|  6> end
|  7>
|  8> %maxcore 8000
|  9>
| 10> %scf
| 11>     ConvForced true
| 12> end
| 13>
| 14> *xyz 0 1
| 15> O   1.794470000   0.923410000   2.768350000
| 16> H   2.338250000   1.359750000   3.430940000
| 17> H   0.879480000   1.303000000   2.865760000
| 18> O  -1.752130000  -0.741530000  -2.896280000
| 19> H  -2.036450000  -0.920500000  -1.984040000
| 20> H  -0.921210000  -1.242140000  -2.984230000
| 21> O   0.885520000  -1.737840000   0.052730000
| 22> H   1.284090000  -0.839590000   0.017130000
| 23> H   1.032320000  -2.090180000  -0.841890000
| 24> O  -1.737840000  -0.885520000  -0.052730000
| 25> H  -2.090180000  -1.032320000   0.841890000
| 26> H  -0.839590000  -1.284090000  -0.017130000
| 27> O   1.752130000   0.741530000  -2.896280000
| 28> H   2.036450000   0.920500000  -1.984040000
| 29> H   0.921210000   1.242140000  -2.984230000
| 30> *
| 31>
| 32>                          ****END OF INPUT****

CARTESIAN COORDINATES (ANGSTROEM)
---------------------------------
  O      1.794470    0.923410    2.768350
  H      2.338250    1.359750    3.430940
  H      0.879480    1.303000    2.865760
  O     -1.752130   -0.741530   -2.896280
  H     -2.036450   -0.920500   -1.984040
  H     -0.921210   -1.242140   -2.984230
  O      0.885520   -1.737840    0.052730
  H      1.284090   -0.839590    0.017130
  H      1.032320   -2.090180   -0.841890
  O     -1.737840   -0.885520   -0.052730
  H     -2.090180   -1.032320    0.841890
  H     -0.839590   -1.284090   -0.017130
  O      1.752130    0.741530   -2.896280
  H      2.036450    0.920500   -1.984040
  H      0.921210    1.242140   -2.984230

 Total Charge           Charge          ....    0
 Multiplicity           Mult            ....    1
 Number of Electrons    NEL             ....   50
 Basis Dimension        Dim             ....  215

ORBITAL ENERGIES
----------------

  NO   OCC          E(Eh)            E(eV)
   0   2.0000     -20.600218      -560.5604
   1   2.0000     -20.578955      -559.9818
   2   2.0000     -20.571323      -559.7741
   3   2.0000     -20.553977      -559.3022
   4   2.0000     -20.530358      -558.6594
   5   2.0000      -1.381041       -37.5800
   6   2.0000      -1.354210       -36.8499
   7   2.0000      -1.350288       -36.7432
   8   2.0000      -1.337624       -36.3986
   9   2.0000      -1.311416       -35.6854
  10   2.0000      -0.738172       -20.0867
  11   2.0000      -0.722595       -19.6628
  12   2.0000      -0.712881       -19.3985
  13   2.0000      -0.711694       -19.3662
  14   2.0000      -0.680308       -18.5121
  15   2.0000      -0.622737       -16.9455
  16   2.0000      -0.591115       -16.0850
  17   2.0000      -0.588631       -16.0175
  18   2.0000      -0.587597       -15.9893
  19   2.0000      -0.548916       -14.9368
  20   2.0000      -0.530953       -14.4480
  21   2.0000      -0.522274       -14.2118
  22   2.0000      -0.515394       -14.0246
  23   2.0000      -0.502666       -13.6782
  24   2.0000      -0.476309       -12.9610
  25   0.0000       0.082268         2.2386
  26   0.0000       0.114988         3.1290
  27   0.0000       0.139487         3.7956
  28   0.0000       0.155388         4.2283
  29   0.0000       0.172718         4.6999

MULLIKEN ATOMIC CHARGES
-----------------------
   0 O :   -0.689706
   1 H :    0.345307
   2 H :    0.346455
   3 O :   -0.697334
   4 H :    0.374276
   5 H :    0.314681
   6 O :   -0.675754
   7 H :    0.359333
   8 H :    0.355388
   9 O :   -0.726057
  10 H :    0.338880
  11 H :    0.352733
  12 O :   -0.680670
  13 H :    0.327287
  14 H :    0.355181
Sum of atomic charges:   -0.0000000

LOEWDIN ATOMIC CHARGES
----------------------
   0 O :   -0.341338
   1 H :    0.161034
   2 H :    0.182283
   3 O :   -0.339915
   4 H :    0.154136
   5 H :    0.152958
   6 O :   -0.283811
   7 H :    0.178652
   8 H :    0.170934
   9 O :   -0.342886
  10 H :    0.163746
  11 H :    0.142463
  12 O :   -0.330101
  13 H :    0.159078
  14 H :    0.172765

  Mayer bond orders larger than 0.100000
B(  0-O ,  1-H ) :   0.8494 B(  0-O ,  2-H ) :   0.8428 B(  3-O ,  4-H ) :   0.8136
B(  3-O ,  5-H ) :   0.8627 B(  6-O ,  7-H ) :   0.8295 B(  6-O ,  8-H ) :   0.8373
B(  9-O , 10-H ) :   0.8494 B(  9-O , 11-H ) :   0.7827 B( 12-O , 13-H ) :   0.8569
B( 12-O , 14-H ) :   0.8377

MP2 TOTAL ENERGY:     -381.585242197 Eh
FINAL SINGLE POINT ENERGY      -381.585242196510

DIPOLE MOMENT
-------------
                                X             Y             Z
Electronic contribution:      0.14084      -0.13186      -0.11980
Nuclear contribution   :      0.59936       0.67960       2.00481
                        -----------------------------------------
Total Dipole Moment    :      0.74020       0.54774       1.88501
                        -----------------------------------------
Magnitude (a.u.)       :      2.09790
Magnitude (Debye)      :      5.33244

Rotational constants in cm-1:     0.061704     0.032298     0.024736
Rotational constants in MHz :  1849.848923   968.254789   741.552503

                             ****ORCA TERMINATED NORMALLY****
TOTAL RUN TIME: 0 days 0 hours 0 minutes 28 seconds 971 msec
