                         Program Version 4.2.0 -  RELEASE  -
|  1> # 12h2o.su.etal.mol0,2,3,4,5,6,9,10,11
|  2> ! MP2 def2-TZVP EnGrad TightSCF
|  3>
|  4> %pal
|  5>     nprocs 6
|  6> end
|  7>
|  8> %maxcore 8000
|  9>
| 10> %scf
| 11>     ConvForced true
| 12> end
| 13>
| 14> *xyz 0 1
| 15> O   1.794470000   0.923410000   2.768350000
| 16> H   2.338250000   1.359750000   3.430940000
| 17> H   0.879480000   1.303000000   2.865760000
| 18> O   0.923410000  -1.794470000  -2.768350000
| 19> H   1.359750000  -2.338250000  -3.430940000
| 20> H   1.303000000  -0.879480000  -2.865760000
| 21> O  -1.752130000  -0.741530000  -2.896280000
| 22> H  -2.036450000  -0.920500000  -1.984040000
| 23> H  -0.921210000  -1.242140000  -2.984230000
| 24> O  -0.885520000   1.737840000   0.052730000
| 25> H  -1.032320000   2.090180000  -0.841890000
| 26> H  -1.284090000   0.839590000   0.017130000
| 27> O   0.885520000  -1.737840000   0.052730000
| 28> H   1.284090000  -0.839590000   0.017130000
| 29> H   1.032320000  -2.090180000  -0.841890000
| 30> O   1.737840000   0.885520000  -0.052730000
| 31> H   2.090180000   1.032320000   0.841890000
| 32> H   0.839590000   1.284090000  -0.017130000
| 33> O   0.741530000  -1.752130000   2.896280000
| 34> H   0.920500000  -2.036450000   1.984040000
| 35> H   1.242140000  -0.921210000   2.984230000
| 36> O  -0.923410000   1.794470000  -2.768350000
| 37> H  -1.359750000   2.338250000  -3.430940000
| 38> H  -1.303000000   0.879480000  -2.865760000
| 39> O  -0.741530000   1.752130000   2.896280000
| 40> H  -0.920500000   2.036450000   1.984040000
| 41> H  -1.242140000   0.921210000   2.984230000
| 42> *
| 43>
| 44>                          ****END OF INPUT****

CARTESIAN COORDINATES (ANGSTROEM)
---------------------------------
  O      1.794470    0.923410    2.768350
  H      2.338250    1.359750    3.430940
  H      0.879480    1.303000    2.865760
  O      0.923410   -1.794470   -2.768350
  H      1.359750   -2.338250   -3.430940
  H      1.303000   -0.879480   -2.865760
  O     -1.752130   -0.741530   -2.896280
  H     -2.036450   -0.920500   -1.984040
  H     -0.921210   -1.242140   -2.984230
  O     -0.885520    1.737840    0.052730
  H     -1.032320    2.090180   -0.841890
  H     -1.284090    0.839590    0.017130
  O      0.885520   -1.737840    0.052730
  H      1.284090   -0.839590    0.017130
  H      1.032320   -2.090180   -0.841890
  O      1.737840    0.885520   -0.052730
  H      2.090180    1.032320    0.841890
  H      0.839590    1.284090   -0.017130
  O      0.741530   -1.752130    2.896280
  H      0.920500   -2.036450    1.984040
  H      1.242140   -0.921210    2.984230
  O     -0.923410    1.794470   -2.768350
  H     -1.359750    2.338250   -3.430940
  H     -1.303000    0.879480   -2.865760
  O     -0.741530    1.752130    2.896280
  H     -0.920500    2.036450    1.984040
  H     -1.242140    0.921210    2.984230

 Total Charge           Charge          ....    0
 Multiplicity           Mult            ....    1
 Number of Electrons    NEL             ....   90
 Basis Dimension        Dim             ....  387

ORBITAL ENERGIES
----------------

  NO   OCC          E(Eh)            E(eV)
   0   2.0000     -20.618364      -561.0542
   1   2.0000     -20.595291      -560.4264
   2   2.0000     -20.594395      -560.4020
   3   2.0000     -20.576618      -559.9182
   4   2.0000     -20.564479      -559.5879
   5   2.0000     -20.553427      -559.2872
   6   2.0000     -20.532803      -558.7260
   7   2.0000     -20.521310      -558.4132
   8   2.0000     -20.490420      -557.5727
   9   2.0000      -1.399824       -38.0911
  10   2.0000      -1.385263       -37.6949
  11   2.0000      -1.381684       -37.5975
  12   2.0000      -1.365850       -37.1667
  13   2.0000      -1.345899       -36.6238
  14   2.0000      -1.339584       -36.4519
  15   2.0000      -1.323063       -36.0024
  16   2.0000      -1.305274       -35.5183
  17   2.0000      -1.275198       -34.6999
  18   2.0000      -0.765504       -20.8304
  19   2.0000      -0.746798       -20.3214
  20   2.0000      -0.743297       -20.2261
  21   2.0000      -0.730744       -19.8845
  22   2.0000      -0.723948       -19.6996
  23   2.0000      -0.720217       -19.5981
  24   2.0000      -0.697350       -18.9759
  25   2.0000      -0.689776       -18.7698
  26   2.0000      -0.652523       -17.7560
  27   2.0000      -0.647252       -17.6126
  28   2.0000      -0.635813       -17.3014
  29   2.0000      -0.623257       -16.9597
  30   2.0000      -0.604375       -16.4459
  31   2.0000      -0.594085       -16.1659
  32   2.0000      -0.586775       -15.9670
  33   2.0000      -0.572299       -15.5730
  34   2.0000      -0.561989       -15.2925
  35   2.0000      -0.547684       -14.9032
  36   2.0000      -0.533113       -14.5067
  37   2.0000      -0.528792       -14.3892
  38   2.0000      -0.518189       -14.1006
  39   2.0000      -0.514304       -13.9949
  40   2.0000      -0.509830       -13.8732
  41   2.0000      -0.493291       -13.4231
  42   2.0000      -0.480172       -13.0661
  43   2.0000      -0.471078       -12.8187
  44   2.0000      -0.440722       -11.9927
  45   0.0000       0.084436         2.2976
  46   0.0000       0.111863         3.0440
  47   0.0000       0.137949         3.7538
  48   0.0000       0.145063         3.9474
  49   0.0000       0.167413         4.5556

MULLIKEN ATOMIC CHARGES
-----------------------
   0 O :   -0.749270
   1 H :    0.345892
   2 H :    0.383661
   3 O :   -0.724597
   4 H :    0.366233
   5 H :    0.385416
   6 O :   -0.698412
   7 H :    0.351822
   8 H :    0.382302
   9 O :   -0.732390
  10 H :    0.395811
  11 H :    0.343695
  12 O :   -0.751215
  13 H :    0.348291
  14 H :    0.356391
  15 O :   -0.734182
  16 H :    0.376062
  17 H :    0.363661
  18 O :   -0.739326
  19 H :    0.369026
  20 H :    0.344755
  21 O :   -0.742762
  22 H :    0.344047
  23 H :    0.370475
  24 O :   -0.702007
  25 H :    0.387675
  26 H :    0.358947
Sum of atomic charges:    0.0000000

LOEWDIN ATOMIC CHARGES
----------------------
   0 O :   -0.313425
   1 H :    0.157034
   2 H :    0.146809
   3 O :   -0.288138
   4 H :    0.169177
   5 H :    0.197113
   6 O :   -0.277313
   7 H :    0.168735
   8 H :    0.156195
   9 O :   -0.285180
  10 H :    0.159904
  11 H :    0.170375
  12 O :   -0.352408
  13 H :    0.137934
  14 H :    0.142243
  15 O :   -0.319846
  16 H :    0.149095
  17 H :    0.139689
  18 O :   -0.362472
  19 H :    0.149470
  20 H :    0.138965
  21 O :   -0.341229
  22 H :    0.157429
  23 H :    0.142704
  24 O :   -0.274942
  25 H :    0.157522
  26 H :    0.174558

  Mayer bond orders larger than 0.100000
B(  0-O ,  1-H ) :   0.8429 B(  0-O ,  2-H ) :   0.7432 B(  3-O ,  4-H ) :   0.8306
B(  3-O ,  5-H ) :   0.8089 B(  6-O ,  7-H ) :   0.8400 B(  6-O ,  8-H ) :   0.7933
B(  6-O , 23-H ) :   0.1040 B(  9-O , 10-H ) :   0.7763 B(  9-O , 11-H ) :   0.8338
B( 12-O , 13-H ) :   0.7676 B( 12-O , 14-H ) :   0.8294 B( 13-H , 15-O ) :   0.1117
B( 15-O , 16-H ) :   0.8030 B( 15-O , 17-H ) :   0.7928 B( 18-O , 19-H ) :   0.8184
B( 18-O , 20-H ) :   0.8275 B( 21-O , 22-H ) :   0.8469 B( 21-O , 23-H ) :   0.7551
B( 24-O , 25-H ) :   0.8012 B( 24-O , 26-H ) :   0.8322

MP2 TOTAL ENERGY:     -686.916936694 Eh
FINAL SINGLE POINT ENERGY      -686.916936694086

DIPOLE MOMENT
-------------
                                X             Y             Z
Electronic contribution:     -0.20907       0.11218      -0.24744
Nuclear contribution   :     -0.30841       0.56744      -2.09298
                        -----------------------------------------
Total Dipole Moment    :     -0.51748       0.67961      -2.34042
                        -----------------------------------------
Magnitude (a.u.)       :      2.49143
Magnitude (Debye)      :      6.33270

Rotational constants in cm-1:     0.029902     0.015689     0.012552
Rotational constants in MHz :   896.444236   470.337943   376.293314

                             ****ORCA TERMINATED NORMALLY****
TOTAL RUN TIME: 0 days 0 hours 4 minutes 40 seconds 276 msec
