                         Program Version 4.2.0 -  RELEASE  -
|  1> # 12h2o.su.etal.mol0,2,6,8,11
|  2> ! MP2 def2-TZVP EnGrad TightSCF
|  3>
|  4> %pal
|  5>     nprocs 6
|  6> end
|  7>
|  8> %maxcore 8000
|  9>
| 10> %scf
| 11>     ConvForced true
| 12> end
| 13>
| 14> *xyz 0 1
| 15> O   1.794470000   0.923410000   2.768350000
| 16> H   2.338250000   1.359750000   3.430940000
| 17> H   0.879480000   1.303000000   2.865760000
| 18> O   0.923410000  -1.794470000  -2.768350000
| 19> H   1.359750000  -2.338250000  -3.430940000
| 20> H   1.303000000  -0.879480000  -2.865760000
| 21> O   1.737840000   0.885520000  -0.052730000
| 22> H   2.090180000   1.032320000   0.841890000
| 23> H   0.839590000   1.284090000  -0.017130000
| 24> O   1.752130000   0.741530000  -2.896280000
| 25> H   2.036450000   0.920500000  -1.984040000
| 26> H   0.921210000   1.242140000  -2.984230000
| 27> O  -0.741530000   1.752130000   2.896280000
| 28> H  -0.920500000   2.036450000   1.984040000
| 29> H  -1.242140000   0.921210000   2.984230000
| 30> *
| 31>
| 32>                          ****END OF INPUT****

CARTESIAN COORDINATES (ANGSTROEM)
---------------------------------
  O      1.794470    0.923410    2.768350
  H      2.338250    1.359750    3.430940
  H      0.879480    1.303000    2.865760
  O      0.923410   -1.794470   -2.768350
  H      1.359750   -2.338250   -3.430940
  H      1.303000   -0.879480   -2.865760
  O      1.737840    0.885520   -0.052730
  H      2.090180    1.032320    0.841890
  H      0.839590    1.284090   -0.017130
  O      1.752130    0.741530   -2.896280
  H      2.036450    0.920500   -1.984040
  H      0.921210    1.242140   -2.984230
  O     -0.741530    1.752130    2.896280
  H     -0.920500    2.036450    1.984040
  H     -1.242140    0.921210    2.984230

 Total Charge           Charge          ....    0
 Multiplicity           Mult            ....    1
 Number of Electrons    NEL             ....   50
 Basis Dimension        Dim             ....  215

ORBITAL ENERGIES
----------------

  NO   OCC          E(Eh)            E(eV)
   0   2.0000     -20.621515      -561.1400
   1   2.0000     -20.562403      -559.5314
   2   2.0000     -20.560580      -559.4818
   3   2.0000     -20.556478      -559.3702
   4   2.0000     -20.498525      -557.7932
   5   2.0000      -1.406909       -38.2839
   6   2.0000      -1.353174       -36.8217
   7   2.0000      -1.344705       -36.5913
   8   2.0000      -1.334979       -36.3266
   9   2.0000      -1.280721       -34.8502
  10   2.0000      -0.764073       -20.7915
  11   2.0000      -0.727816       -19.8049
  12   2.0000      -0.717900       -19.5351
  13   2.0000      -0.702708       -19.1217
  14   2.0000      -0.669350       -18.2139
  15   2.0000      -0.644689       -17.5429
  16   2.0000      -0.605944       -16.4886
  17   2.0000      -0.590547       -16.0696
  18   2.0000      -0.571599       -15.5540
  19   2.0000      -0.545141       -14.8340
  20   2.0000      -0.531219       -14.4552
  21   2.0000      -0.508767       -13.8442
  22   2.0000      -0.504796       -13.7362
  23   2.0000      -0.487612       -13.2686
  24   2.0000      -0.448996       -12.2178
  25   0.0000       0.076564         2.0834
  26   0.0000       0.130531         3.5519
  27   0.0000       0.150437         4.0936
  28   0.0000       0.160054         4.3553
  29   0.0000       0.189684         5.1616

MULLIKEN ATOMIC CHARGES
-----------------------
   0 O :   -0.732045
   1 H :    0.340157
   2 H :    0.367769
   3 O :   -0.734510
   4 H :    0.318657
   5 H :    0.368824
   6 O :   -0.697931
   7 H :    0.382884
   8 H :    0.306530
   9 O :   -0.692902
  10 H :    0.388188
  11 H :    0.335310
  12 O :   -0.673528
  13 H :    0.351754
  14 H :    0.370841
Sum of atomic charges:   -0.0000000

LOEWDIN ATOMIC CHARGES
----------------------
   0 O :   -0.337033
   1 H :    0.155692
   2 H :    0.142868
   3 O :   -0.374362
   4 H :    0.145233
   5 H :    0.142492
   6 O :   -0.321613
   7 H :    0.156540
   8 H :    0.156598
   9 O :   -0.278393
  10 H :    0.159331
  11 H :    0.165296
  12 O :   -0.265697
  13 H :    0.170663
  14 H :    0.182385

  Mayer bond orders larger than 0.100000
B(  0-O ,  1-H ) :   0.8489 B(  0-O ,  2-H ) :   0.7729 B(  3-O ,  4-H ) :   0.8642
B(  3-O ,  5-H ) :   0.7817 B(  6-O ,  7-H ) :   0.7939 B(  6-O ,  8-H ) :   0.8618
B(  9-O , 10-H ) :   0.7954 B(  9-O , 11-H ) :   0.8505 B( 12-O , 13-H ) :   0.8405
B( 12-O , 14-H ) :   0.8289

MP2 TOTAL ENERGY:     -381.594313316 Eh
FINAL SINGLE POINT ENERGY      -381.594313315587

DIPOLE MOMENT
-------------
                                X             Y             Z
Electronic contribution:      0.03106       0.09583       0.39773
Nuclear contribution   :     -1.10485       1.55276       0.77428
                        -----------------------------------------
Total Dipole Moment    :     -1.07379       1.64859       1.17201
                        -----------------------------------------
Magnitude (a.u.)       :      2.29008
Magnitude (Debye)      :      5.82093

Rotational constants in cm-1:     0.122060     0.023361     0.022728
Rotational constants in MHz :  3659.273402   700.349631   681.370603

                             ****ORCA TERMINATED NORMALLY****
TOTAL RUN TIME: 0 days 0 hours 0 minutes 29 seconds 498 msec
