                         Program Version 4.2.0 -  RELEASE  -
|  1> # 12h2o.su.etal.mol0,2,8,9,10
|  2> ! MP2 def2-TZVP EnGrad TightSCF
|  3>
|  4> %pal
|  5>     nprocs 6
|  6> end
|  7>
|  8> %maxcore 8000
|  9>
| 10> %scf
| 11>     ConvForced true
| 12> end
| 13>
| 14> *xyz 0 1
| 15> O   1.794470000   0.923410000   2.768350000
| 16> H   2.338250000   1.359750000   3.430940000
| 17> H   0.879480000   1.303000000   2.865760000
| 18> O   0.923410000  -1.794470000  -2.768350000
| 19> H   1.359750000  -2.338250000  -3.430940000
| 20> H   1.303000000  -0.879480000  -2.865760000
| 21> O   1.752130000   0.741530000  -2.896280000
| 22> H   2.036450000   0.920500000  -1.984040000
| 23> H   0.921210000   1.242140000  -2.984230000
| 24> O   0.741530000  -1.752130000   2.896280000
| 25> H   0.920500000  -2.036450000   1.984040000
| 26> H   1.242140000  -0.921210000   2.984230000
| 27> O  -0.923410000   1.794470000  -2.768350000
| 28> H  -1.359750000   2.338250000  -3.430940000
| 29> H  -1.303000000   0.879480000  -2.865760000
| 30> *
| 31>
| 32>                          ****END OF INPUT****

CARTESIAN COORDINATES (ANGSTROEM)
---------------------------------
  O      1.794470    0.923410    2.768350
  H      2.338250    1.359750    3.430940
  H      0.879480    1.303000    2.865760
  O      0.923410   -1.794470   -2.768350
  H      1.359750   -2.338250   -3.430940
  H      1.303000   -0.879480   -2.865760
  O      1.752130    0.741530   -2.896280
  H      2.036450    0.920500   -1.984040
  H      0.921210    1.242140   -2.984230
  O      0.741530   -1.752130    2.896280
  H      0.920500   -2.036450    1.984040
  H      1.242140   -0.921210    2.984230
  O     -0.923410    1.794470   -2.768350
  H     -1.359750    2.338250   -3.430940
  H     -1.303000    0.879480   -2.865760

 Total Charge           Charge          ....    0
 Multiplicity           Mult            ....    1
 Number of Electrons    NEL             ....   50
 Basis Dimension        Dim             ....  215

ORBITAL ENERGIES
----------------

  NO   OCC          E(Eh)            E(eV)
   0   2.0000     -20.596695      -560.4646
   1   2.0000     -20.590740      -560.3025
   2   2.0000     -20.568242      -559.6903
   3   2.0000     -20.525013      -558.5140
   4   2.0000     -20.515203      -558.2471
   5   2.0000      -1.375357       -37.4254
   6   2.0000      -1.368343       -37.2345
   7   2.0000      -1.356029       -36.8994
   8   2.0000      -1.307550       -35.5803
   9   2.0000      -1.297167       -35.2977
  10   2.0000      -0.742420       -20.2023
  11   2.0000      -0.735440       -20.0123
  12   2.0000      -0.717752       -19.5310
  13   2.0000      -0.685013       -18.6401
  14   2.0000      -0.677480       -18.4352
  15   2.0000      -0.619443       -16.8559
  16   2.0000      -0.606611       -16.5067
  17   2.0000      -0.591372       -16.0921
  18   2.0000      -0.553480       -15.0610
  19   2.0000      -0.548331       -14.9209
  20   2.0000      -0.535280       -14.5657
  21   2.0000      -0.524341       -14.2680
  22   2.0000      -0.499656       -13.5963
  23   2.0000      -0.472824       -12.8662
  24   2.0000      -0.465946       -12.6790
  25   0.0000       0.103980         2.8294
  26   0.0000       0.111813         3.0426
  27   0.0000       0.151622         4.1258
  28   0.0000       0.177316         4.8250
  29   0.0000       0.180506         4.9118

MULLIKEN ATOMIC CHARGES
-----------------------
   0 O :   -0.694779
   1 H :    0.353218
   2 H :    0.360878
   3 O :   -0.738341
   4 H :    0.324827
   5 H :    0.364068
   6 O :   -0.701048
   7 H :    0.354677
   8 H :    0.372265
   9 O :   -0.708698
  10 H :    0.335814
  11 H :    0.353517
  12 O :   -0.703300
  13 H :    0.355514
  14 H :    0.371387
Sum of atomic charges:   -0.0000000

LOEWDIN ATOMIC CHARGES
----------------------
   0 O :   -0.310974
   1 H :    0.163770
   2 H :    0.188509
   3 O :   -0.376395
   4 H :    0.148136
   5 H :    0.140616
   6 O :   -0.283684
   7 H :    0.171907
   8 H :    0.152908
   9 O :   -0.349993
  10 H :    0.163144
  11 H :    0.145512
  12 O :   -0.311329
  13 H :    0.165188
  14 H :    0.192684

  Mayer bond orders larger than 0.100000
B(  0-O ,  1-H ) :   0.8412 B(  0-O ,  2-H ) :   0.8305 B(  3-O ,  4-H ) :   0.8608
B(  3-O ,  5-H ) :   0.7778 B(  6-O ,  7-H ) :   0.8398 B(  6-O ,  8-H ) :   0.7991
B(  9-O , 10-H ) :   0.8543 B(  9-O , 11-H ) :   0.8224 B( 12-O , 13-H ) :   0.8400
B( 12-O , 14-H ) :   0.8219

MP2 TOTAL ENERGY:     -381.592112455 Eh
FINAL SINGLE POINT ENERGY      -381.592112455169

DIPOLE MOMENT
-------------
                                X             Y             Z
Electronic contribution:     -0.01946       0.30729       0.09875
Nuclear contribution   :     -0.19829       1.69977      -0.63259
                        -----------------------------------------
Total Dipole Moment    :     -0.21775       2.00706      -0.53385
                        -----------------------------------------
Magnitude (a.u.)       :      2.08823
Magnitude (Debye)      :      5.30786

Rotational constants in cm-1:     0.063563     0.021202     0.018569
Rotational constants in MHz :  1905.580398   635.624684   556.698220

                             ****ORCA TERMINATED NORMALLY****
TOTAL RUN TIME: 0 days 0 hours 0 minutes 27 seconds 877 msec
