                         Program Version 4.2.0 -  RELEASE  -
|  1> # 12mecn.remya.etal.2.mol0,1,3
|  2> ! MP2 def2-TZVP EnGrad TightSCF
|  3>
|  4> %pal
|  5>     nprocs 6
|  6> end
|  7>
|  8> %maxcore 8000
|  9>
| 10> %scf
| 11>     ConvForced true
| 12> end
| 13>
| 14> *xyz 0 1
| 15> C  -0.869520000  -3.929380000   1.700199000
| 16> H  -0.057420000  -3.268850000   2.015352000
| 17> H  -0.697530000  -4.930670000   2.101524000
| 18> H  -1.821490000  -3.546590000   2.077146000
| 19> C  -0.916080000  -3.969960000   0.256749000
| 20> N  -0.955390000  -3.995980000  -0.909290000
| 21> C  -4.697980000  -0.249690000   1.746215000
| 22> H  -4.927570000   0.755530000   2.111799000
| 23> H  -3.709180000  -0.561560000   2.093253000
| 24> H  -5.432280000  -0.961520000   2.128066000
| 25> C  -4.714100000  -0.247110000   0.301670000
| 26> N  -4.729750000  -0.234960000  -0.865260000
| 27> C  -5.181310000   2.853865000  -1.626100000
| 28> H  -5.488260000   3.811434000  -2.053310000
| 29> H  -5.857590000   2.068112000  -1.968630000
| 30> H  -4.170750000   2.611402000  -1.966640000
| 31> C  -5.187260000   2.919160000  -0.181450000
| 32> N  -5.181700000   2.970641000   0.983640000
| 33> *
| 34>
| 35>                          ****END OF INPUT****

CARTESIAN COORDINATES (ANGSTROEM)
---------------------------------
  C     -0.869520   -3.929380    1.700199
  H     -0.057420   -3.268850    2.015352
  H     -0.697530   -4.930670    2.101524
  H     -1.821490   -3.546590    2.077146
  C     -0.916080   -3.969960    0.256749
  N     -0.955390   -3.995980   -0.909290
  C     -4.697980   -0.249690    1.746215
  H     -4.927570    0.755530    2.111799
  H     -3.709180   -0.561560    2.093253
  H     -5.432280   -0.961520    2.128066
  C     -4.714100   -0.247110    0.301670
  N     -4.729750   -0.234960   -0.865260
  C     -5.181310    2.853865   -1.626100
  H     -5.488260    3.811434   -2.053310
  H     -5.857590    2.068112   -1.968630
  H     -4.170750    2.611402   -1.966640
  C     -5.187260    2.919160   -0.181450
  N     -5.181700    2.970641    0.983640

 Total Charge           Charge          ....    0
 Multiplicity           Mult            ....    1
 Number of Electrons    NEL             ....   66
 Basis Dimension        Dim             ....  333

ORBITAL ENERGIES
----------------

  NO   OCC          E(Eh)            E(eV)
   0   2.0000     -15.573499      -423.7765
   1   2.0000     -15.571211      -423.7142
   2   2.0000     -15.570276      -423.6887
   3   2.0000     -11.287425      -307.1464
   4   2.0000     -11.282854      -307.0221
   5   2.0000     -11.282100      -307.0016
   6   2.0000     -11.279808      -306.9392
   7   2.0000     -11.274972      -306.8076
   8   2.0000     -11.271397      -306.7103
   9   2.0000      -1.218028       -33.1442
  10   2.0000      -1.214309       -33.0430
  11   2.0000      -1.213158       -33.0117
  12   2.0000      -1.046150       -28.4672
  13   2.0000      -1.038295       -28.2535
  14   2.0000      -1.033298       -28.1175
  15   2.0000      -0.701841       -19.0981
  16   2.0000      -0.696111       -18.9422
  17   2.0000      -0.691706       -18.8223
  18   2.0000      -0.635199       -17.2846
  19   2.0000      -0.634039       -17.2531
  20   2.0000      -0.632739       -17.2177
  21   2.0000      -0.624188       -16.9850
  22   2.0000      -0.618113       -16.8197
  23   2.0000      -0.616670       -16.7805
  24   2.0000      -0.558764       -15.2048
  25   2.0000      -0.555613       -15.1190
  26   2.0000      -0.555455       -15.1147
  27   2.0000      -0.463388       -12.6094
  28   2.0000      -0.458457       -12.4752
  29   2.0000      -0.457518       -12.4497
  30   2.0000      -0.457471       -12.4484
  31   2.0000      -0.456773       -12.4294
  32   2.0000      -0.452295       -12.3076
  33   0.0000       0.098049         2.6681
  34   0.0000       0.132495         3.6054
  35   0.0000       0.145491         3.9590
  36   0.0000       0.166368         4.5271
  37   0.0000       0.169485         4.6119

MULLIKEN ATOMIC CHARGES
-----------------------
   0 C :   -0.280204
   1 H :    0.173152
   2 H :    0.174312
   3 H :    0.164146
   4 C :   -0.144359
   5 N :   -0.087049
   6 C :   -0.290027
   7 H :    0.208451
   8 H :    0.156502
   9 H :    0.167338
  10 C :   -0.108771
  11 N :   -0.134358
  12 C :   -0.263992
  13 H :    0.171090
  14 H :    0.185423
  15 H :    0.174142
  16 C :   -0.114855
  17 N :   -0.150941
Sum of atomic charges:    0.0000000

LOEWDIN ATOMIC CHARGES
----------------------
   0 C :   -0.284601
   1 H :    0.152735
   2 H :    0.151923
   3 H :    0.149997
   4 C :   -0.220612
   5 N :    0.050536
   6 C :   -0.283773
   7 H :    0.157547
   8 H :    0.148875
   9 H :    0.150112
  10 C :   -0.210525
  11 N :    0.040271
  12 C :   -0.284139
  13 H :    0.148723
  14 H :    0.156353
  15 H :    0.157283
  16 C :   -0.208278
  17 N :    0.027572

  Mayer bond orders larger than 0.100000
B(  0-C ,  1-H ) :   0.9170 B(  0-C ,  2-H ) :   0.9168 B(  0-C ,  3-H ) :   0.9188
B(  0-C ,  4-C ) :   0.9006 B(  4-C ,  5-N ) :   2.8317 B(  6-C ,  7-H ) :   0.9008
B(  6-C ,  8-H ) :   0.9184 B(  6-C ,  9-H ) :   0.9179 B(  6-C , 10-C ) :   0.8978
B( 10-C , 11-N ) :   2.7827 B( 12-C , 13-H ) :   0.9103 B( 12-C , 14-H ) :   0.9099
B( 12-C , 15-H ) :   0.9135 B( 12-C , 16-C ) :   0.9123 B( 16-C , 17-N ) :   2.7733

MP2 TOTAL ENERGY:     -397.458192621 Eh
FINAL SINGLE POINT ENERGY      -397.458192620725

DIPOLE MOMENT
-------------
                                X             Y             Z
Electronic contribution:     -0.17518       0.08896      -3.19154
Nuclear contribution   :      0.24284      -0.12554       4.62531
                        -----------------------------------------
Total Dipole Moment    :      0.06766      -0.03658       1.43377
                        -----------------------------------------
Magnitude (a.u.)       :      1.43583
Magnitude (Debye)      :      3.64960

Rotational constants in cm-1:     0.079074     0.011702     0.010794
Rotational constants in MHz :  2370.564015   350.808808   323.587355

                             ****ORCA TERMINATED NORMALLY****
TOTAL RUN TIME: 0 days 0 hours 2 minutes 56 seconds 530 msec
