                         Program Version 4.2.0 -  RELEASE  -
|  1> # 12h2o.su.etal.mol0,1,5,8,9,11
|  2> ! MP2 def2-TZVP EnGrad TightSCF
|  3>
|  4> %pal
|  5>     nprocs 6
|  6> end
|  7>
|  8> %maxcore 8000
|  9>
| 10> %scf
| 11>     ConvForced true
| 12> end
| 13>
| 14> *xyz 0 1
| 15> O   1.794470000   0.923410000   2.768350000
| 16> H   2.338250000   1.359750000   3.430940000
| 17> H   0.879480000   1.303000000   2.865760000
| 18> O  -1.794470000  -0.923410000   2.768350000
| 19> H  -2.338250000  -1.359750000   3.430940000
| 20> H  -0.879480000  -1.303000000   2.865760000
| 21> O   0.885520000  -1.737840000   0.052730000
| 22> H   1.284090000  -0.839590000   0.017130000
| 23> H   1.032320000  -2.090180000  -0.841890000
| 24> O   1.752130000   0.741530000  -2.896280000
| 25> H   2.036450000   0.920500000  -1.984040000
| 26> H   0.921210000   1.242140000  -2.984230000
| 27> O   0.741530000  -1.752130000   2.896280000
| 28> H   0.920500000  -2.036450000   1.984040000
| 29> H   1.242140000  -0.921210000   2.984230000
| 30> O  -0.741530000   1.752130000   2.896280000
| 31> H  -0.920500000   2.036450000   1.984040000
| 32> H  -1.242140000   0.921210000   2.984230000
| 33> *
| 34>
| 35>                          ****END OF INPUT****

CARTESIAN COORDINATES (ANGSTROEM)
---------------------------------
  O      1.794470    0.923410    2.768350
  H      2.338250    1.359750    3.430940
  H      0.879480    1.303000    2.865760
  O     -1.794470   -0.923410    2.768350
  H     -2.338250   -1.359750    3.430940
  H     -0.879480   -1.303000    2.865760
  O      0.885520   -1.737840    0.052730
  H      1.284090   -0.839590    0.017130
  H      1.032320   -2.090180   -0.841890
  O      1.752130    0.741530   -2.896280
  H      2.036450    0.920500   -1.984040
  H      0.921210    1.242140   -2.984230
  O      0.741530   -1.752130    2.896280
  H      0.920500   -2.036450    1.984040
  H      1.242140   -0.921210    2.984230
  O     -0.741530    1.752130    2.896280
  H     -0.920500    2.036450    1.984040
  H     -1.242140    0.921210    2.984230

 Total Charge           Charge          ....    0
 Multiplicity           Mult            ....    1
 Number of Electrons    NEL             ....   60
 Basis Dimension        Dim             ....  258

ORBITAL ENERGIES
----------------

  NO   OCC          E(Eh)            E(eV)
   0   2.0000     -20.585484      -560.1595
   1   2.0000     -20.579849      -560.0062
   2   2.0000     -20.570922      -559.7632
   3   2.0000     -20.551529      -559.2355
   4   2.0000     -20.542119      -558.9795
   5   2.0000     -20.537598      -558.8565
   6   2.0000      -1.364651       -37.1341
   7   2.0000      -1.363010       -37.0894
   8   2.0000      -1.358823       -36.9755
   9   2.0000      -1.339119       -36.4393
  10   2.0000      -1.332056       -36.2471
  11   2.0000      -1.315072       -35.7849
  12   2.0000      -0.727304       -19.7910
  13   2.0000      -0.722425       -19.6582
  14   2.0000      -0.721514       -19.6334
  15   2.0000      -0.718502       -19.5514
  16   2.0000      -0.700508       -19.0618
  17   2.0000      -0.697270       -18.9737
  18   2.0000      -0.621743       -16.9185
  19   2.0000      -0.606359       -16.4999
  20   2.0000      -0.595944       -16.2165
  21   2.0000      -0.579177       -15.7602
  22   2.0000      -0.577332       -15.7100
  23   2.0000      -0.546324       -14.8662
  24   2.0000      -0.528885       -14.3917
  25   2.0000      -0.523144       -14.2355
  26   2.0000      -0.511563       -13.9203
  27   2.0000      -0.500741       -13.6259
  28   2.0000      -0.488539       -13.2938
  29   2.0000      -0.486650       -13.2424
  30   0.0000       0.085631         2.3301
  31   0.0000       0.129663         3.5283
  32   0.0000       0.150526         4.0960
  33   0.0000       0.159508         4.3404
  34   0.0000       0.168799         4.5933

MULLIKEN ATOMIC CHARGES
-----------------------
   0 O :   -0.749226
   1 H :    0.343248
   2 H :    0.378364
   3 O :   -0.745702
   4 H :    0.337595
   5 H :    0.384211
   6 O :   -0.694448
   7 H :    0.341889
   8 H :    0.356485
   9 O :   -0.670562
  10 H :    0.331361
  11 H :    0.342632
  12 O :   -0.725357
  13 H :    0.383699
  14 H :    0.364784
  15 O :   -0.707114
  16 H :    0.347863
  17 H :    0.380276
Sum of atomic charges:   -0.0000000

LOEWDIN ATOMIC CHARGES
----------------------
   0 O :   -0.345502
   1 H :    0.156461
   2 H :    0.144492
   3 O :   -0.342462
   4 H :    0.153937
   5 H :    0.145866
   6 O :   -0.315927
   7 H :    0.171616
   8 H :    0.173166
   9 O :   -0.327883
  10 H :    0.161030
  11 H :    0.169422
  12 O :   -0.289020
  13 H :    0.157029
  14 H :    0.148392
  15 O :   -0.284423
  16 H :    0.168556
  17 H :    0.155251

  Mayer bond orders larger than 0.100000
B(  0-O ,  1-H ) :   0.8475 B(  0-O ,  2-H ) :   0.7486 B(  2-H , 15-O ) :   0.1110
B(  3-O ,  4-H ) :   0.8502 B(  3-O ,  5-H ) :   0.7406 B(  5-H , 12-O ) :   0.1160
B(  6-O ,  7-H ) :   0.8399 B(  6-O ,  8-H ) :   0.8383 B(  9-O , 10-H ) :   0.8549
B(  9-O , 11-H ) :   0.8494 B( 12-O , 13-H ) :   0.8072 B( 12-O , 14-H ) :   0.7969
B( 15-O , 16-H ) :   0.8437 B( 15-O , 17-H ) :   0.7757

MP2 TOTAL ENERGY:     -457.932960169 Eh
FINAL SINGLE POINT ENERGY      -457.932960169183

DIPOLE MOMENT
-------------
                                X             Y             Z
Electronic contribution:     -0.00065      -0.22553      -0.16220
Nuclear contribution   :     -0.00102       1.02005      -0.19520
                        -----------------------------------------
Total Dipole Moment    :     -0.00167       0.79452      -0.35739
                        -----------------------------------------
Magnitude (a.u.)       :      0.87120
Magnitude (Debye)      :      2.21443

Rotational constants in cm-1:     0.051396     0.024127     0.021601
Rotational constants in MHz :  1540.821652   723.294419   647.576719

                             ****ORCA TERMINATED NORMALLY****
TOTAL RUN TIME: 0 days 0 hours 1 minutes 1 seconds 925 msec
