                         Program Version 4.2.0 -  RELEASE  -
|  1> # 12h2o.su.etal.mol3,4,9,10
|  2> ! MP2 def2-TZVP EnGrad TightSCF
|  3>
|  4> %pal
|  5>     nprocs 6
|  6> end
|  7>
|  8> %maxcore 8000
|  9>
| 10> %scf
| 11>     ConvForced true
| 12> end
| 13>
| 14> *xyz 0 1
| 15> O  -1.752130000  -0.741530000  -2.896280000
| 16> H  -2.036450000  -0.920500000  -1.984040000
| 17> H  -0.921210000  -1.242140000  -2.984230000
| 18> O  -0.885520000   1.737840000   0.052730000
| 19> H  -1.032320000   2.090180000  -0.841890000
| 20> H  -1.284090000   0.839590000   0.017130000
| 21> O   0.741530000  -1.752130000   2.896280000
| 22> H   0.920500000  -2.036450000   1.984040000
| 23> H   1.242140000  -0.921210000   2.984230000
| 24> O  -0.923410000   1.794470000  -2.768350000
| 25> H  -1.359750000   2.338250000  -3.430940000
| 26> H  -1.303000000   0.879480000  -2.865760000
| 27> *
| 28>
| 29>                          ****END OF INPUT****

CARTESIAN COORDINATES (ANGSTROEM)
---------------------------------
  O     -1.752130   -0.741530   -2.896280
  H     -2.036450   -0.920500   -1.984040
  H     -0.921210   -1.242140   -2.984230
  O     -0.885520    1.737840    0.052730
  H     -1.032320    2.090180   -0.841890
  H     -1.284090    0.839590    0.017130
  O      0.741530   -1.752130    2.896280
  H      0.920500   -2.036450    1.984040
  H      1.242140   -0.921210    2.984230
  O     -0.923410    1.794470   -2.768350
  H     -1.359750    2.338250   -3.430940
  H     -1.303000    0.879480   -2.865760

 Total Charge           Charge          ....    0
 Multiplicity           Mult            ....    1
 Number of Electrons    NEL             ....   40
 Basis Dimension        Dim             ....  172

ORBITAL ENERGIES
----------------

  NO   OCC          E(Eh)            E(eV)
   0   2.0000     -20.618256      -561.0513
   1   2.0000     -20.562328      -559.5294
   2   2.0000     -20.549967      -559.1930
   3   2.0000     -20.533368      -558.7413
   4   2.0000      -1.403623       -38.1945
   5   2.0000      -1.341524       -36.5047
   6   2.0000      -1.335439       -36.3392
   7   2.0000      -1.311323       -35.6829
   8   2.0000      -0.760798       -20.7024
   9   2.0000      -0.721667       -19.6376
  10   2.0000      -0.704428       -19.1685
  11   2.0000      -0.680790       -18.5252
  12   2.0000      -0.640228       -17.4215
  13   2.0000      -0.588001       -16.0003
  14   2.0000      -0.579096       -15.7580
  15   2.0000      -0.558710       -15.2033
  16   2.0000      -0.537849       -14.6356
  17   2.0000      -0.506401       -13.7799
  18   2.0000      -0.496844       -13.5198
  19   2.0000      -0.478774       -13.0281
  20   0.0000       0.080895         2.2013
  21   0.0000       0.125304         3.4097
  22   0.0000       0.154038         4.1916
  23   0.0000       0.155970         4.2442
  24   0.0000       0.197788         5.3821

MULLIKEN ATOMIC CHARGES
-----------------------
   0 O :   -0.672852
   1 H :    0.354128
   2 H :    0.365892
   3 O :   -0.687964
   4 H :    0.370590
   5 H :    0.299040
   6 O :   -0.674972
   7 H :    0.330730
   8 H :    0.344638
   9 O :   -0.732486
  10 H :    0.338028
  11 H :    0.365228
Sum of atomic charges:   -0.0000000

LOEWDIN ATOMIC CHARGES
----------------------
   0 O :   -0.265911
   1 H :    0.171691
   2 H :    0.179999
   3 O :   -0.346528
   4 H :    0.150174
   5 H :    0.152402
   6 O :   -0.332443
   7 H :    0.162611
   8 H :    0.170073
   9 O :   -0.338631
  10 H :    0.154302
  11 H :    0.142260

  Mayer bond orders larger than 0.100000
B(  0-O ,  1-H ) :   0.8384 B(  0-O ,  2-H ) :   0.8321 B(  3-O ,  4-H ) :   0.8101
B(  3-O ,  5-H ) :   0.8711 B(  6-O ,  7-H ) :   0.8570 B(  6-O ,  8-H ) :   0.8487
B(  9-O , 10-H ) :   0.8500 B(  9-O , 11-H ) :   0.7749

MP2 TOTAL ENERGY:     -305.265544090 Eh
FINAL SINGLE POINT ENERGY      -305.265544090343

DIPOLE MOMENT
-------------
                                X             Y             Z
Electronic contribution:     -0.02766      -0.10188      -0.00005
Nuclear contribution   :     -0.11247      -0.87406      -1.40687
                        -----------------------------------------
Total Dipole Moment    :     -0.14013      -0.97594      -1.40692
                        -----------------------------------------
Magnitude (a.u.)       :      1.71800
Magnitude (Debye)      :      4.36681

Rotational constants in cm-1:     0.130625     0.032547     0.026939
Rotational constants in MHz :  3916.052182   975.725922   807.607290

                             ****ORCA TERMINATED NORMALLY****
TOTAL RUN TIME: 0 days 0 hours 0 minutes 19 seconds 733 msec
