                         Program Version 4.2.0 -  RELEASE  -
|  1> # 12h2o.su.etal.mol2,4,5,7,8
|  2> ! MP2 def2-TZVP EnGrad TightSCF
|  3>
|  4> %pal
|  5>     nprocs 6
|  6> end
|  7>
|  8> %maxcore 8000
|  9>
| 10> %scf
| 11>     ConvForced true
| 12> end
| 13>
| 14> *xyz 0 1
| 15> O   0.923410000  -1.794470000  -2.768350000
| 16> H   1.359750000  -2.338250000  -3.430940000
| 17> H   1.303000000  -0.879480000  -2.865760000
| 18> O  -0.885520000   1.737840000   0.052730000
| 19> H  -1.032320000   2.090180000  -0.841890000
| 20> H  -1.284090000   0.839590000   0.017130000
| 21> O   0.885520000  -1.737840000   0.052730000
| 22> H   1.284090000  -0.839590000   0.017130000
| 23> H   1.032320000  -2.090180000  -0.841890000
| 24> O  -1.737840000  -0.885520000  -0.052730000
| 25> H  -2.090180000  -1.032320000   0.841890000
| 26> H  -0.839590000  -1.284090000  -0.017130000
| 27> O   1.752130000   0.741530000  -2.896280000
| 28> H   2.036450000   0.920500000  -1.984040000
| 29> H   0.921210000   1.242140000  -2.984230000
| 30> *
| 31>
| 32>                          ****END OF INPUT****

CARTESIAN COORDINATES (ANGSTROEM)
---------------------------------
  O      0.923410   -1.794470   -2.768350
  H      1.359750   -2.338250   -3.430940
  H      1.303000   -0.879480   -2.865760
  O     -0.885520    1.737840    0.052730
  H     -1.032320    2.090180   -0.841890
  H     -1.284090    0.839590    0.017130
  O      0.885520   -1.737840    0.052730
  H      1.284090   -0.839590    0.017130
  H      1.032320   -2.090180   -0.841890
  O     -1.737840   -0.885520   -0.052730
  H     -2.090180   -1.032320    0.841890
  H     -0.839590   -1.284090   -0.017130
  O      1.752130    0.741530   -2.896280
  H      2.036450    0.920500   -1.984040
  H      0.921210    1.242140   -2.984230

 Total Charge           Charge          ....    0
 Multiplicity           Mult            ....    1
 Number of Electrons    NEL             ....   50
 Basis Dimension        Dim             ....  215

ORBITAL ENERGIES
----------------

  NO   OCC          E(Eh)            E(eV)
   0   2.0000     -20.616326      -560.9987
   1   2.0000     -20.569121      -559.7142
   2   2.0000     -20.557025      -559.3851
   3   2.0000     -20.550794      -559.2155
   4   2.0000     -20.535658      -558.8037
   5   2.0000      -1.401840       -38.1460
   6   2.0000      -1.357401       -36.9368
   7   2.0000      -1.340103       -36.4660
   8   2.0000      -1.334600       -36.3163
   9   2.0000      -1.314314       -35.7643
  10   2.0000      -0.758945       -20.6520
  11   2.0000      -0.727346       -19.7921
  12   2.0000      -0.714940       -19.4545
  13   2.0000      -0.703637       -19.1469
  14   2.0000      -0.688698       -18.7404
  15   2.0000      -0.641405       -17.4535
  16   2.0000      -0.607558       -16.5325
  17   2.0000      -0.590921       -16.0798
  18   2.0000      -0.576289       -15.6816
  19   2.0000      -0.558369       -15.1940
  20   2.0000      -0.542418       -14.7599
  21   2.0000      -0.508719       -13.8429
  22   2.0000      -0.506063       -13.7707
  23   2.0000      -0.493657       -13.4331
  24   2.0000      -0.483160       -13.1474
  25   0.0000       0.080850         2.2000
  26   0.0000       0.136641         3.7182
  27   0.0000       0.151384         4.1194
  28   0.0000       0.154321         4.1993
  29   0.0000       0.200339         5.4515

MULLIKEN ATOMIC CHARGES
-----------------------
   0 O :   -0.734797
   1 H :    0.341675
   2 H :    0.368774
   3 O :   -0.717888
   4 H :    0.314163
   5 H :    0.357701
   6 O :   -0.698477
   7 H :    0.331527
   8 H :    0.384072
   9 O :   -0.715314
  10 H :    0.344926
  11 H :    0.377490
  12 O :   -0.675729
  13 H :    0.357991
  14 H :    0.363885
Sum of atomic charges:   -0.0000000

LOEWDIN ATOMIC CHARGES
----------------------
   0 O :   -0.337895
   1 H :    0.156369
   2 H :    0.143283
   3 O :   -0.364092
   4 H :    0.150299
   5 H :    0.141646
   6 O :   -0.296673
   7 H :    0.165211
   8 H :    0.154881
   9 O :   -0.310972
  10 H :    0.165318
  11 H :    0.147189
  12 O :   -0.265569
  13 H :    0.172736
  14 H :    0.178270

  Mayer bond orders larger than 0.100000
B(  0-O ,  1-H ) :   0.8481 B(  0-O ,  2-H ) :   0.7693 B(  3-O ,  4-H ) :   0.8651
B(  3-O ,  5-H ) :   0.7790 B(  5-H ,  9-O ) :   0.1076 B(  6-O ,  7-H ) :   0.8474
B(  6-O ,  8-H ) :   0.7901 B(  9-O , 10-H ) :   0.8450 B(  9-O , 11-H ) :   0.7699
B( 12-O , 13-H ) :   0.8355 B( 12-O , 14-H ) :   0.8314

MP2 TOTAL ENERGY:     -381.604017443 Eh
FINAL SINGLE POINT ENERGY      -381.604017442896

DIPOLE MOMENT
-------------
                                X             Y             Z
Electronic contribution:      0.13077      -0.18065      -0.11369
Nuclear contribution   :      0.67857       0.42069      -0.72077
                        -----------------------------------------
Total Dipole Moment    :      0.80935       0.24004      -0.83446
                        -----------------------------------------
Magnitude (a.u.)       :      1.18700
Magnitude (Debye)      :      3.01713

Rotational constants in cm-1:     0.077543     0.050491     0.036487
Rotational constants in MHz :  2324.683686  1513.695877  1093.840614

                             ****ORCA TERMINATED NORMALLY****
TOTAL RUN TIME: 0 days 0 hours 0 minutes 36 seconds 128 msec
