                         Program Version 4.2.0 -  RELEASE  -
|  1> # Functional Basis-set
|  2> ! MP2 def2-SVP
|  3>
|  4> # Type of calculation
|  5> ! OPT
|  6>
|  7> # Options
|  8> ! TightSCF Grid4
|  9>
| 10> %pal nprocs 12 end
| 11>
| 12> *xyz  0  1
| 13> O                  0.00000000    0.00000000    0.21451132
| 14> H                 -0.00000000    0.75695033   -0.37137096
| 15> H                  0.00000000   -0.75695033   -0.37137096
| 16> *
| 17>
| 18>                          ****END OF INPUT****
 Total Charge           Charge          ....    0
 Multiplicity           Mult            ....    1
 Number of Electrons    NEL             ....   10
MP2 TOTAL ENERGY:      -76.162109639 Eh
FINAL SINGLE POINT ENERGY       -76.162109639340
MP2 TOTAL ENERGY:      -76.162217316 Eh
FINAL SINGLE POINT ENERGY       -76.162217315707
MP2 TOTAL ENERGY:      -76.162249066 Eh
FINAL SINGLE POINT ENERGY       -76.162249065828
MP2 TOTAL ENERGY:      -76.162249787 Eh
FINAL SINGLE POINT ENERGY       -76.162249787080
                    ***********************HURRAY********************

CARTESIAN COORDINATES (ANGSTROEM)
---------------------------------
  O      0.000000   -0.000000    0.225833
  H      0.000000    0.750317   -0.377032
  H      0.000000   -0.750317   -0.377032

 Multiplicity           Mult            ....    1
 Number of Electrons    NEL             ....   10
 Basis Dimension        Dim             ....   24

ORBITAL ENERGIES
----------------

  NO   OCC          E(Eh)            E(eV)
   0   2.0000     -20.547715      -559.1318
   1   2.0000      -1.317972       -35.8638
   2   2.0000      -0.696895       -18.9635
   3   2.0000      -0.571407       -15.5488
   4   2.0000      -0.498483       -13.5644
   5   0.0000       0.174991         4.7617
   6   0.0000       0.254743         6.9319
   7   0.0000       0.783675        21.3249
   8   0.0000       0.872515        23.7423
   9   0.0000       1.185267        32.2528

MULLIKEN ATOMIC CHARGES
-----------------------
   0 O :   -0.324793
   1 H :    0.162396
   2 H :    0.162396
Sum of atomic charges:    0.0000000

LOEWDIN ATOMIC CHARGES
----------------------
   0 O :   -0.149554
   1 H :    0.074777
   2 H :    0.074777

  Mayer bond orders larger than 0.100000
B(  0-O ,  1-H ) :   0.9616 B(  0-O ,  2-H ) :   0.9616

MP2 TOTAL ENERGY:      -76.162249812 Eh
FINAL SINGLE POINT ENERGY       -76.162249812396

DIPOLE MOMENT
-------------
                                X             Y             Z
Electronic contribution:     -0.00000       0.00000       0.18664
Nuclear contribution   :      0.00000       0.00000      -1.00360
                        -----------------------------------------
Total Dipole Moment    :     -0.00000       0.00000      -0.81697
                        -----------------------------------------
Magnitude (a.u.)       :      0.81697
Magnitude (Debye)      :      2.07656

Rotational constants in cm-1:    25.906473    14.853085     9.440511
Rotational constants in MHz : 776656.519999 445284.288197 283019.392888

                             ****ORCA TERMINATED NORMALLY****
TOTAL RUN TIME: 0 days 0 hours 0 minutes 23 seconds 982 msec
