                         Program Version 4.2.0 -  RELEASE  -
|  1> # Functional Basis-set
|  2> ! MP2 def2-TZVP
|  3>
|  4> # Type of calculation
|  5> ! OPT
|  6>
|  7> # Options
|  8> ! TightSCF Grid4
|  9>
| 10> %pal nprocs 12 end
| 11>
| 12> *xyz  0  1
| 13> O                  0.00000000    0.00000000    0.21451132
| 14> H                 -0.00000000    0.75695033   -0.37137096
| 15> H                  0.00000000   -0.75695033   -0.37137096
| 16> *
| 17>
| 18>                          ****END OF INPUT****
 Total Charge           Charge          ....    0
 Multiplicity           Mult            ....    1
 Number of Electrons    NEL             ....   10
MP2 TOTAL ENERGY:      -76.313006253 Eh
FINAL SINGLE POINT ENERGY       -76.313006253469
MP2 TOTAL ENERGY:      -76.313055864 Eh
FINAL SINGLE POINT ENERGY       -76.313055863770
                    ***********************HURRAY********************

CARTESIAN COORDINATES (ANGSTROEM)
---------------------------------
  O      0.000000   -0.000000    0.216072
  H      0.000000    0.761480   -0.372151
  H      0.000000   -0.761480   -0.372151

 Multiplicity           Mult            ....    1
 Number of Electrons    NEL             ....   10
 Basis Dimension        Dim             ....   43

ORBITAL ENERGIES
----------------

  NO   OCC          E(Eh)            E(eV)
   0   2.0000     -20.560565      -559.4814
   1   2.0000      -1.347109       -36.6567
   2   2.0000      -0.712292       -19.3824
   3   2.0000      -0.580120       -15.7859
   4   2.0000      -0.507609       -13.8128
   5   0.0000       0.127184         3.4609
   6   0.0000       0.196989         5.3604
   7   0.0000       0.522712        14.2237
   8   0.0000       0.565525        15.3887
   9   0.0000       0.597389        16.2558

MULLIKEN ATOMIC CHARGES
-----------------------
   0 O :   -0.672569
   1 H :    0.336285
   2 H :    0.336285
Sum of atomic charges:    0.0000000

LOEWDIN ATOMIC CHARGES
----------------------
   0 O :   -0.319436
   1 H :    0.159718
   2 H :    0.159718

  Mayer bond orders larger than 0.100000
B(  0-O ,  1-H ) :   0.8557 B(  0-O ,  2-H ) :   0.8557

MP2 TOTAL ENERGY:      -76.313056076 Eh
FINAL SINGLE POINT ENERGY       -76.313056076231

DIPOLE MOMENT
-------------
                                X             Y             Z
Electronic contribution:      0.00000      -0.00000       0.14871
Nuclear contribution   :      0.00000       0.00000      -0.97923
                        -----------------------------------------
Total Dipole Moment    :      0.00000       0.00000      -0.83052
                        -----------------------------------------
Magnitude (a.u.)       :      0.83052
Magnitude (Debye)      :      2.11102

Rotational constants in cm-1:    27.212127    14.420817     9.425735
Rotational constants in MHz : 815799.037282 432325.225954 282576.433705

                             ****ORCA TERMINATED NORMALLY****
TOTAL RUN TIME: 0 days 0 hours 1 minutes 7 seconds 965 msec
