                         Program Version 4.2.0 -  RELEASE  -
|  1> # 12h2o.su.etal.mol1,2,3,4,5,6,7,8
|  2> ! MP2 def2-TZVP EnGrad TightSCF
|  3>
|  4> %pal
|  5>     nprocs 6
|  6> end
|  7>
|  8> %maxcore 8000
|  9>
| 10> %scf
| 11>     ConvForced true
| 12> end
| 13>
| 14> *xyz 0 1
| 15> O  -1.794470000  -0.923410000   2.768350000
| 16> H  -2.338250000  -1.359750000   3.430940000
| 17> H  -0.879480000  -1.303000000   2.865760000
| 18> O   0.923410000  -1.794470000  -2.768350000
| 19> H   1.359750000  -2.338250000  -3.430940000
| 20> H   1.303000000  -0.879480000  -2.865760000
| 21> O  -1.752130000  -0.741530000  -2.896280000
| 22> H  -2.036450000  -0.920500000  -1.984040000
| 23> H  -0.921210000  -1.242140000  -2.984230000
| 24> O  -0.885520000   1.737840000   0.052730000
| 25> H  -1.032320000   2.090180000  -0.841890000
| 26> H  -1.284090000   0.839590000   0.017130000
| 27> O   0.885520000  -1.737840000   0.052730000
| 28> H   1.284090000  -0.839590000   0.017130000
| 29> H   1.032320000  -2.090180000  -0.841890000
| 30> O   1.737840000   0.885520000  -0.052730000
| 31> H   2.090180000   1.032320000   0.841890000
| 32> H   0.839590000   1.284090000  -0.017130000
| 33> O  -1.737840000  -0.885520000  -0.052730000
| 34> H  -2.090180000  -1.032320000   0.841890000
| 35> H  -0.839590000  -1.284090000  -0.017130000
| 36> O   1.752130000   0.741530000  -2.896280000
| 37> H   2.036450000   0.920500000  -1.984040000
| 38> H   0.921210000   1.242140000  -2.984230000
| 39> *
| 40>
| 41>                          ****END OF INPUT****

CARTESIAN COORDINATES (ANGSTROEM)
---------------------------------
  O     -1.794470   -0.923410    2.768350
  H     -2.338250   -1.359750    3.430940
  H     -0.879480   -1.303000    2.865760
  O      0.923410   -1.794470   -2.768350
  H      1.359750   -2.338250   -3.430940
  H      1.303000   -0.879480   -2.865760
  O     -1.752130   -0.741530   -2.896280
  H     -2.036450   -0.920500   -1.984040
  H     -0.921210   -1.242140   -2.984230
  O     -0.885520    1.737840    0.052730
  H     -1.032320    2.090180   -0.841890
  H     -1.284090    0.839590    0.017130
  O      0.885520   -1.737840    0.052730
  H      1.284090   -0.839590    0.017130
  H      1.032320   -2.090180   -0.841890
  O      1.737840    0.885520   -0.052730
  H      2.090180    1.032320    0.841890
  H      0.839590    1.284090   -0.017130
  O     -1.737840   -0.885520   -0.052730
  H     -2.090180   -1.032320    0.841890
  H     -0.839590   -1.284090   -0.017130
  O      1.752130    0.741530   -2.896280
  H      2.036450    0.920500   -1.984040
  H      0.921210    1.242140   -2.984230

 Total Charge           Charge          ....    0
 Multiplicity           Mult            ....    1
 Number of Electrons    NEL             ....   80
 Basis Dimension        Dim             ....  344

ORBITAL ENERGIES
----------------

  NO   OCC          E(Eh)            E(eV)
   0   2.0000     -20.591587      -560.3256
   1   2.0000     -20.589317      -560.2638
   2   2.0000     -20.583217      -560.0978
   3   2.0000     -20.564214      -559.5807
   4   2.0000     -20.561886      -559.5174
   5   2.0000     -20.547105      -559.1152
   6   2.0000     -20.544427      -559.0423
   7   2.0000     -20.505931      -557.9947
   8   2.0000      -1.383912       -37.6582
   9   2.0000      -1.371495       -37.3203
  10   2.0000      -1.369954       -37.2783
  11   2.0000      -1.351795       -36.7842
  12   2.0000      -1.347860       -36.6771
  13   2.0000      -1.338330       -36.4178
  14   2.0000      -1.324429       -36.0395
  15   2.0000      -1.290815       -35.1249
  16   2.0000      -0.746109       -20.3027
  17   2.0000      -0.736543       -20.0424
  18   2.0000      -0.730406       -19.8754
  19   2.0000      -0.728509       -19.8237
  20   2.0000      -0.715897       -19.4806
  21   2.0000      -0.709495       -19.3063
  22   2.0000      -0.707202       -19.2440
  23   2.0000      -0.668227       -18.1834
  24   2.0000      -0.644778       -17.5453
  25   2.0000      -0.616578       -16.7779
  26   2.0000      -0.611029       -16.6269
  27   2.0000      -0.599800       -16.3214
  28   2.0000      -0.594356       -16.1733
  29   2.0000      -0.576737       -15.6938
  30   2.0000      -0.571225       -15.5438
  31   2.0000      -0.539187       -14.6720
  32   2.0000      -0.530675       -14.4404
  33   2.0000      -0.523725       -14.2513
  34   2.0000      -0.520048       -14.1512
  35   2.0000      -0.511094       -13.9076
  36   2.0000      -0.504084       -13.7168
  37   2.0000      -0.496625       -13.5139
  38   2.0000      -0.490142       -13.3374
  39   2.0000      -0.456094       -12.4109
  40   0.0000       0.097673         2.6578
  41   0.0000       0.117399         3.1946
  42   0.0000       0.142117         3.8672
  43   0.0000       0.148108         4.0302
  44   0.0000       0.187938         5.1141

MULLIKEN ATOMIC CHARGES
-----------------------
   0 O :   -0.699061
   1 H :    0.352870
   2 H :    0.362129
   3 O :   -0.752395
   4 H :    0.348778
   5 H :    0.384560
   6 O :   -0.737606
   7 H :    0.369162
   8 H :    0.348779
   9 O :   -0.717426
  10 H :    0.344814
  11 H :    0.384679
  12 O :   -0.736204
  13 H :    0.354277
  14 H :    0.379536
  15 O :   -0.744976
  16 H :    0.362977
  17 H :    0.368058
  18 O :   -0.757513
  19 H :    0.379979
  20 H :    0.360705
  21 O :   -0.699120
  22 H :    0.389940
  23 H :    0.353059
Sum of atomic charges:    0.0000000

LOEWDIN ATOMIC CHARGES
----------------------
   0 O :   -0.311168
   1 H :    0.163942
   2 H :    0.188217
   3 O :   -0.314013
   4 H :    0.158409
   5 H :    0.146844
   6 O :   -0.359277
   7 H :    0.147726
   8 H :    0.140647
   9 O :   -0.306767
  10 H :    0.163461
  11 H :    0.147943
  12 O :   -0.320358
  13 H :    0.137422
  14 H :    0.150254
  15 O :   -0.300271
  16 H :    0.173296
  17 H :    0.145364
  18 O :   -0.302118
  19 H :    0.151659
  20 H :    0.141167
  21 O :   -0.272921
  22 H :    0.159053
  23 H :    0.171490

  Mayer bond orders larger than 0.100000
B(  0-O ,  1-H ) :   0.8418 B(  0-O ,  2-H ) :   0.8290 B(  3-O ,  4-H ) :   0.8413
B(  3-O ,  5-H ) :   0.7416 B(  6-O ,  7-H ) :   0.8207 B(  6-O ,  8-H ) :   0.8232
B(  9-O , 10-H ) :   0.8434 B(  9-O , 11-H ) :   0.7538 B(  9-O , 17-H ) :   0.1284
B( 11-H , 18-O ) :   0.1049 B( 12-O , 13-H ) :   0.7893 B( 12-O , 14-H ) :   0.8005
B( 12-O , 20-H ) :   0.1145 B( 15-O , 16-H ) :   0.8333 B( 15-O , 17-H ) :   0.7426
B( 18-O , 19-H ) :   0.8020 B( 18-O , 20-H ) :   0.7543 B( 21-O , 22-H ) :   0.7989
B( 21-O , 23-H ) :   0.8355

MP2 TOTAL ENERGY:     -610.601726992 Eh
FINAL SINGLE POINT ENERGY      -610.601726992033

DIPOLE MOMENT
-------------
                                X             Y             Z
Electronic contribution:      0.00790       0.23584       0.12605
Nuclear contribution   :      0.98813      -0.37017       1.37221
                        -----------------------------------------
Total Dipole Moment    :      0.99603      -0.13433       1.49827
                        -----------------------------------------
Magnitude (a.u.)       :      1.80414
Magnitude (Debye)      :      4.58576

Rotational constants in cm-1:     0.037109     0.021653     0.019579
Rotational constants in MHz :  1112.510920   649.140754   586.955536

                             ****ORCA TERMINATED NORMALLY****
TOTAL RUN TIME: 0 days 0 hours 3 minutes 37 seconds 69 msec
