                         Program Version 4.2.0 -  RELEASE  -
|  1> # 12h2o.su.etal.mol0,1,3,5,6,9,10,11
|  2> ! MP2 def2-TZVP EnGrad TightSCF
|  3>
|  4> %pal
|  5>     nprocs 6
|  6> end
|  7>
|  8> %maxcore 8000
|  9>
| 10> %scf
| 11>     ConvForced true
| 12> end
| 13>
| 14> *xyz 0 1
| 15> O   1.794470000   0.923410000   2.768350000
| 16> H   2.338250000   1.359750000   3.430940000
| 17> H   0.879480000   1.303000000   2.865760000
| 18> O  -1.794470000  -0.923410000   2.768350000
| 19> H  -2.338250000  -1.359750000   3.430940000
| 20> H  -0.879480000  -1.303000000   2.865760000
| 21> O  -1.752130000  -0.741530000  -2.896280000
| 22> H  -2.036450000  -0.920500000  -1.984040000
| 23> H  -0.921210000  -1.242140000  -2.984230000
| 24> O   0.885520000  -1.737840000   0.052730000
| 25> H   1.284090000  -0.839590000   0.017130000
| 26> H   1.032320000  -2.090180000  -0.841890000
| 27> O   1.737840000   0.885520000  -0.052730000
| 28> H   2.090180000   1.032320000   0.841890000
| 29> H   0.839590000   1.284090000  -0.017130000
| 30> O   0.741530000  -1.752130000   2.896280000
| 31> H   0.920500000  -2.036450000   1.984040000
| 32> H   1.242140000  -0.921210000   2.984230000
| 33> O  -0.923410000   1.794470000  -2.768350000
| 34> H  -1.359750000   2.338250000  -3.430940000
| 35> H  -1.303000000   0.879480000  -2.865760000
| 36> O  -0.741530000   1.752130000   2.896280000
| 37> H  -0.920500000   2.036450000   1.984040000
| 38> H  -1.242140000   0.921210000   2.984230000
| 39> *
| 40>
| 41>                          ****END OF INPUT****

CARTESIAN COORDINATES (ANGSTROEM)
---------------------------------
  O      1.794470    0.923410    2.768350
  H      2.338250    1.359750    3.430940
  H      0.879480    1.303000    2.865760
  O     -1.794470   -0.923410    2.768350
  H     -2.338250   -1.359750    3.430940
  H     -0.879480   -1.303000    2.865760
  O     -1.752130   -0.741530   -2.896280
  H     -2.036450   -0.920500   -1.984040
  H     -0.921210   -1.242140   -2.984230
  O      0.885520   -1.737840    0.052730
  H      1.284090   -0.839590    0.017130
  H      1.032320   -2.090180   -0.841890
  O      1.737840    0.885520   -0.052730
  H      2.090180    1.032320    0.841890
  H      0.839590    1.284090   -0.017130
  O      0.741530   -1.752130    2.896280
  H      0.920500   -2.036450    1.984040
  H      1.242140   -0.921210    2.984230
  O     -0.923410    1.794470   -2.768350
  H     -1.359750    2.338250   -3.430940
  H     -1.303000    0.879480   -2.865760
  O     -0.741530    1.752130    2.896280
  H     -0.920500    2.036450    1.984040
  H     -1.242140    0.921210    2.984230

 Total Charge           Charge          ....    0
 Multiplicity           Mult            ....    1
 Number of Electrons    NEL             ....   80
 Basis Dimension        Dim             ....  344

ORBITAL ENERGIES
----------------

  NO   OCC          E(Eh)            E(eV)
   0   2.0000     -20.599212      -560.5331
   1   2.0000     -20.580687      -560.0290
   2   2.0000     -20.574653      -559.8648
   3   2.0000     -20.568256      -559.6907
   4   2.0000     -20.556955      -559.3832
   5   2.0000     -20.545427      -559.0695
   6   2.0000     -20.543677      -559.0219
   7   2.0000     -20.524794      -558.5080
   8   2.0000      -1.384500       -37.6742
   9   2.0000      -1.376991       -37.4698
  10   2.0000      -1.359715       -36.9997
  11   2.0000      -1.351217       -36.7685
  12   2.0000      -1.344071       -36.5740
  13   2.0000      -1.334361       -36.3098
  14   2.0000      -1.320337       -35.9282
  15   2.0000      -1.306980       -35.5647
  16   2.0000      -0.741961       -20.1898
  17   2.0000      -0.740660       -20.1544
  18   2.0000      -0.731606       -19.9080
  19   2.0000      -0.714986       -19.4558
  20   2.0000      -0.713618       -19.4185
  21   2.0000      -0.706198       -19.2166
  22   2.0000      -0.700640       -19.0654
  23   2.0000      -0.697070       -18.9682
  24   2.0000      -0.636191       -17.3117
  25   2.0000      -0.620339       -16.8803
  26   2.0000      -0.606430       -16.5018
  27   2.0000      -0.598751       -16.2928
  28   2.0000      -0.588163       -16.0047
  29   2.0000      -0.576202       -15.6792
  30   2.0000      -0.562645       -15.3103
  31   2.0000      -0.549219       -14.9450
  32   2.0000      -0.523285       -14.2393
  33   2.0000      -0.520440       -14.1619
  34   2.0000      -0.519329       -14.1317
  35   2.0000      -0.511273       -13.9125
  36   2.0000      -0.504341       -13.7238
  37   2.0000      -0.494652       -13.4602
  38   2.0000      -0.490131       -13.3372
  39   2.0000      -0.475192       -12.9306
  40   0.0000       0.087348         2.3769
  41   0.0000       0.113397         3.0857
  42   0.0000       0.143462         3.9038
  43   0.0000       0.154350         4.2001
  44   0.0000       0.162115         4.4114

MULLIKEN ATOMIC CHARGES
-----------------------
   0 O :   -0.759302
   1 H :    0.354705
   2 H :    0.381930
   3 O :   -0.748611
   4 H :    0.339373
   5 H :    0.384813
   6 O :   -0.678227
   7 H :    0.365822
   8 H :    0.354019
   9 O :   -0.730115
  10 H :    0.364307
  11 H :    0.329830
  12 O :   -0.693577
  13 H :    0.378770
  14 H :    0.344122
  15 O :   -0.724927
  16 H :    0.387220
  17 H :    0.364297
  18 O :   -0.734217
  19 H :    0.327639
  20 H :    0.365280
  21 O :   -0.706400
  22 H :    0.349688
  23 H :    0.383560
Sum of atomic charges:    0.0000000

LOEWDIN ATOMIC CHARGES
----------------------
   0 O :   -0.315923
   1 H :    0.161022
   2 H :    0.145589
   3 O :   -0.343525
   4 H :    0.154714
   5 H :    0.145895
   6 O :   -0.269451
   7 H :    0.177401
   8 H :    0.173617
   9 O :   -0.342493
  10 H :    0.145646
  11 H :    0.158587
  12 O :   -0.294261
  13 H :    0.152000
  14 H :    0.171116
  15 O :   -0.288420
  16 H :    0.158392
  17 H :    0.147605
  18 O :   -0.373310
  19 H :    0.150168
  20 H :    0.141757
  21 O :   -0.280441
  22 H :    0.167702
  23 H :    0.156614

  Mayer bond orders larger than 0.100000
B(  0-O ,  1-H ) :   0.8383 B(  0-O ,  2-H ) :   0.7329 B(  2-H , 21-O ) :   0.1141
B(  3-O ,  4-H ) :   0.8491 B(  3-O ,  5-H ) :   0.7385 B(  5-H , 15-O ) :   0.1175
B(  6-O ,  7-H ) :   0.8312 B(  6-O ,  8-H ) :   0.8383 B(  9-O , 10-H ) :   0.7646
B(  9-O , 11-H ) :   0.8538 B( 10-H , 12-O ) :   0.1060 B( 12-O , 13-H ) :   0.7989
B( 12-O , 14-H ) :   0.8380 B( 15-O , 16-H ) :   0.7997 B( 15-O , 17-H ) :   0.8049
B( 18-O , 19-H ) :   0.8591 B( 18-O , 20-H ) :   0.7856 B( 21-O , 22-H ) :   0.8419
B( 21-O , 23-H ) :   0.7722

MP2 TOTAL ENERGY:     -610.587362711 Eh
FINAL SINGLE POINT ENERGY      -610.587362711381

DIPOLE MOMENT
-------------
                                X             Y             Z
Electronic contribution:      0.04350      -0.09218       0.05175
Nuclear contribution   :     -0.22463       0.03370      -0.05351
                        -----------------------------------------
Total Dipole Moment    :     -0.18113      -0.05848      -0.00177
                        -----------------------------------------
Magnitude (a.u.)       :      0.19034
Magnitude (Debye)      :      0.48381

Rotational constants in cm-1:     0.032440     0.015720     0.015010
Rotational constants in MHz :   972.536388   471.258989   450.001492

                             ****ORCA TERMINATED NORMALLY****
TOTAL RUN TIME: 0 days 0 hours 2 minutes 54 seconds 389 msec
