                         Program Version 4.2.0 -  RELEASE  -
|  1> # 12h2o.su.etal.mol0,1,2,4,6,10,11
|  2> ! MP2 def2-TZVP EnGrad TightSCF
|  3>
|  4> %pal
|  5>     nprocs 6
|  6> end
|  7>
|  8> %maxcore 8000
|  9>
| 10> %scf
| 11>     ConvForced true
| 12> end
| 13>
| 14> *xyz 0 1
| 15> O   1.794470000   0.923410000   2.768350000
| 16> H   2.338250000   1.359750000   3.430940000
| 17> H   0.879480000   1.303000000   2.865760000
| 18> O  -1.794470000  -0.923410000   2.768350000
| 19> H  -2.338250000  -1.359750000   3.430940000
| 20> H  -0.879480000  -1.303000000   2.865760000
| 21> O   0.923410000  -1.794470000  -2.768350000
| 22> H   1.359750000  -2.338250000  -3.430940000
| 23> H   1.303000000  -0.879480000  -2.865760000
| 24> O  -0.885520000   1.737840000   0.052730000
| 25> H  -1.032320000   2.090180000  -0.841890000
| 26> H  -1.284090000   0.839590000   0.017130000
| 27> O   1.737840000   0.885520000  -0.052730000
| 28> H   2.090180000   1.032320000   0.841890000
| 29> H   0.839590000   1.284090000  -0.017130000
| 30> O  -0.923410000   1.794470000  -2.768350000
| 31> H  -1.359750000   2.338250000  -3.430940000
| 32> H  -1.303000000   0.879480000  -2.865760000
| 33> O  -0.741530000   1.752130000   2.896280000
| 34> H  -0.920500000   2.036450000   1.984040000
| 35> H  -1.242140000   0.921210000   2.984230000
| 36> *
| 37>
| 38>                          ****END OF INPUT****

CARTESIAN COORDINATES (ANGSTROEM)
---------------------------------
  O      1.794470    0.923410    2.768350
  H      2.338250    1.359750    3.430940
  H      0.879480    1.303000    2.865760
  O     -1.794470   -0.923410    2.768350
  H     -2.338250   -1.359750    3.430940
  H     -0.879480   -1.303000    2.865760
  O      0.923410   -1.794470   -2.768350
  H      1.359750   -2.338250   -3.430940
  H      1.303000   -0.879480   -2.865760
  O     -0.885520    1.737840    0.052730
  H     -1.032320    2.090180   -0.841890
  H     -1.284090    0.839590    0.017130
  O      1.737840    0.885520   -0.052730
  H      2.090180    1.032320    0.841890
  H      0.839590    1.284090   -0.017130
  O     -0.923410    1.794470   -2.768350
  H     -1.359750    2.338250   -3.430940
  H     -1.303000    0.879480   -2.865760
  O     -0.741530    1.752130    2.896280
  H     -0.920500    2.036450    1.984040
  H     -1.242140    0.921210    2.984230

 Total Charge           Charge          ....    0
 Multiplicity           Mult            ....    1
 Number of Electrons    NEL             ....   70
 Basis Dimension        Dim             ....  301

ORBITAL ENERGIES
----------------

  NO   OCC          E(Eh)            E(eV)
   0   2.0000     -20.597179      -560.4777
   1   2.0000     -20.592227      -560.3430
   2   2.0000     -20.575777      -559.8954
   3   2.0000     -20.549952      -559.1926
   4   2.0000     -20.543876      -559.0273
   5   2.0000     -20.520463      -558.3902
   6   2.0000     -20.478724      -557.2544
   7   2.0000      -1.376556       -37.4580
   8   2.0000      -1.370309       -37.2880
   9   2.0000      -1.360484       -37.0206
  10   2.0000      -1.335963       -36.3534
  11   2.0000      -1.325320       -36.0638
  12   2.0000      -1.303793       -35.4780
  13   2.0000      -1.262998       -34.3679
  14   2.0000      -0.742447       -20.2030
  15   2.0000      -0.737279       -20.0624
  16   2.0000      -0.726190       -19.7606
  17   2.0000      -0.700813       -19.0701
  18   2.0000      -0.693270       -18.8648
  19   2.0000      -0.687394       -18.7049
  20   2.0000      -0.649192       -17.6654
  21   2.0000      -0.625919       -17.0321
  22   2.0000      -0.612981       -16.6801
  23   2.0000      -0.596966       -16.2443
  24   2.0000      -0.572102       -15.5677
  25   2.0000      -0.562187       -15.2979
  26   2.0000      -0.556544       -15.1443
  27   2.0000      -0.538967       -14.6660
  28   2.0000      -0.533501       -14.5173
  29   2.0000      -0.522511       -14.2183
  30   2.0000      -0.494101       -13.4452
  31   2.0000      -0.492274       -13.3954
  32   2.0000      -0.485243       -13.2041
  33   2.0000      -0.464902       -12.6506
  34   2.0000      -0.429806       -11.6956
  35   0.0000       0.096458         2.6247
  36   0.0000       0.113320         3.0836
  37   0.0000       0.145574         3.9613
  38   0.0000       0.162478         4.4212
  39   0.0000       0.170008         4.6262

MULLIKEN ATOMIC CHARGES
-----------------------
   0 O :   -0.738833
   1 H :    0.327913
   2 H :    0.367213
   3 O :   -0.706943
   4 H :    0.355382
   5 H :    0.374476
   6 O :   -0.694009
   7 H :    0.333545
   8 H :    0.359223
   9 O :   -0.724289
  10 H :    0.385565
  11 H :    0.354565
  12 O :   -0.741519
  13 H :    0.359613
  14 H :    0.341400
  15 O :   -0.696132
  16 H :    0.353824
  17 H :    0.360883
  18 O :   -0.717765
  19 H :    0.383441
  20 H :    0.362446
Sum of atomic charges:   -0.0000000

LOEWDIN ATOMIC CHARGES
----------------------
   0 O :   -0.345020
   1 H :    0.149008
   2 H :    0.142352
   3 O :   -0.313065
   4 H :    0.165116
   5 H :    0.193840
   6 O :   -0.343108
   7 H :    0.155782
   8 H :    0.185613
   9 O :   -0.285388
  10 H :    0.156855
  11 H :    0.176241
  12 O :   -0.375164
  13 H :    0.143955
  14 H :    0.133513
  15 O :   -0.308067
  16 H :    0.164621
  17 H :    0.187634
  18 O :   -0.287953
  19 H :    0.155091
  20 H :    0.148143

  Mayer bond orders larger than 0.100000
B(  0-O ,  1-H ) :   0.8550 B(  0-O ,  2-H ) :   0.7549 B(  2-H , 18-O ) :   0.1076
B(  3-O ,  4-H ) :   0.8401 B(  3-O ,  5-H ) :   0.8198 B(  6-O ,  7-H ) :   0.8556
B(  6-O ,  8-H ) :   0.8313 B(  9-O , 10-H ) :   0.7940 B(  9-O , 11-H ) :   0.8317
B( 12-O , 13-H ) :   0.8206 B( 12-O , 14-H ) :   0.8189 B( 15-O , 16-H ) :   0.8408
B( 15-O , 17-H ) :   0.8280 B( 18-O , 19-H ) :   0.8062 B( 18-O , 20-H ) :   0.8084

MP2 TOTAL ENERGY:     -534.241138037 Eh
FINAL SINGLE POINT ENERGY      -534.241138037089

DIPOLE MOMENT
-------------
                                X             Y             Z
Electronic contribution:     -0.33181       0.05547      -0.07358
Nuclear contribution   :     -1.47399      -0.45542      -0.68611
                        -----------------------------------------
Total Dipole Moment    :     -1.80580      -0.39995      -0.75969
                        -----------------------------------------
Magnitude (a.u.)       :      1.99950
Magnitude (Debye)      :      5.08233

Rotational constants in cm-1:     0.037960     0.018495     0.017733
Rotational constants in MHz :  1138.023214   554.478050   531.607060

                             ****ORCA TERMINATED NORMALLY****
TOTAL RUN TIME: 0 days 0 hours 1 minutes 42 seconds 290 msec
