                         Program Version 4.2.0 -  RELEASE  -
|  1> # 12h2o.su.etal.mol0,1,2,5,6,10
|  2> ! MP2 def2-TZVP EnGrad TightSCF
|  3>
|  4> %pal
|  5>     nprocs 6
|  6> end
|  7>
|  8> %maxcore 8000
|  9>
| 10> %scf
| 11>     ConvForced true
| 12> end
| 13>
| 14> *xyz 0 1
| 15> O   1.794470000   0.923410000   2.768350000
| 16> H   2.338250000   1.359750000   3.430940000
| 17> H   0.879480000   1.303000000   2.865760000
| 18> O  -1.794470000  -0.923410000   2.768350000
| 19> H  -2.338250000  -1.359750000   3.430940000
| 20> H  -0.879480000  -1.303000000   2.865760000
| 21> O   0.923410000  -1.794470000  -2.768350000
| 22> H   1.359750000  -2.338250000  -3.430940000
| 23> H   1.303000000  -0.879480000  -2.865760000
| 24> O   0.885520000  -1.737840000   0.052730000
| 25> H   1.284090000  -0.839590000   0.017130000
| 26> H   1.032320000  -2.090180000  -0.841890000
| 27> O   1.737840000   0.885520000  -0.052730000
| 28> H   2.090180000   1.032320000   0.841890000
| 29> H   0.839590000   1.284090000  -0.017130000
| 30> O  -0.923410000   1.794470000  -2.768350000
| 31> H  -1.359750000   2.338250000  -3.430940000
| 32> H  -1.303000000   0.879480000  -2.865760000
| 33> *
| 34>
| 35>                          ****END OF INPUT****

CARTESIAN COORDINATES (ANGSTROEM)
---------------------------------
  O      1.794470    0.923410    2.768350
  H      2.338250    1.359750    3.430940
  H      0.879480    1.303000    2.865760
  O     -1.794470   -0.923410    2.768350
  H     -2.338250   -1.359750    3.430940
  H     -0.879480   -1.303000    2.865760
  O      0.923410   -1.794470   -2.768350
  H      1.359750   -2.338250   -3.430940
  H      1.303000   -0.879480   -2.865760
  O      0.885520   -1.737840    0.052730
  H      1.284090   -0.839590    0.017130
  H      1.032320   -2.090180   -0.841890
  O      1.737840    0.885520   -0.052730
  H      2.090180    1.032320    0.841890
  H      0.839590    1.284090   -0.017130
  O     -0.923410    1.794470   -2.768350
  H     -1.359750    2.338250   -3.430940
  H     -1.303000    0.879480   -2.865760

 Total Charge           Charge          ....    0
 Multiplicity           Mult            ....    1
 Number of Electrons    NEL             ....   60
 Basis Dimension        Dim             ....  258

ORBITAL ENERGIES
----------------

  NO   OCC          E(Eh)            E(eV)
   0   2.0000     -20.588114      -560.2311
   1   2.0000     -20.569480      -559.7240
   2   2.0000     -20.562099      -559.5232
   3   2.0000     -20.548320      -559.1482
   4   2.0000     -20.546650      -559.1028
   5   2.0000     -20.479305      -557.2702
   6   2.0000      -1.366291       -37.1787
   7   2.0000      -1.347369       -36.6638
   8   2.0000      -1.337398       -36.3924
   9   2.0000      -1.331598       -36.2346
  10   2.0000      -1.322020       -35.9740
  11   2.0000      -1.263751       -34.3884
  12   2.0000      -0.732746       -19.9390
  13   2.0000      -0.714278       -19.4365
  14   2.0000      -0.705358       -19.1938
  15   2.0000      -0.695779       -18.9331
  16   2.0000      -0.689915       -18.7735
  17   2.0000      -0.647746       -17.6261
  18   2.0000      -0.607371       -16.5274
  19   2.0000      -0.587122       -15.9764
  20   2.0000      -0.574063       -15.6210
  21   2.0000      -0.569824       -15.5057
  22   2.0000      -0.558703       -15.2031
  23   2.0000      -0.534179       -14.5357
  24   2.0000      -0.524476       -14.2717
  25   2.0000      -0.505530       -13.7562
  26   2.0000      -0.500315       -13.6143
  27   2.0000      -0.489998       -13.3335
  28   2.0000      -0.475044       -12.9266
  29   2.0000      -0.430438       -11.7128
  30   0.0000       0.104048         2.8313
  31   0.0000       0.118100         3.2137
  32   0.0000       0.144677         3.9368
  33   0.0000       0.149230         4.0607
  34   0.0000       0.178840         4.8665

MULLIKEN ATOMIC CHARGES
-----------------------
   0 O :   -0.695591
   1 H :    0.350572
   2 H :    0.359661
   3 O :   -0.692447
   4 H :    0.332169
   5 H :    0.358993
   6 O :   -0.697519
   7 H :    0.342358
   8 H :    0.362610
   9 O :   -0.739574
  10 H :    0.343707
  11 H :    0.352328
  12 O :   -0.702312
  13 H :    0.374017
  14 H :    0.349118
  15 O :   -0.690962
  16 H :    0.338655
  17 H :    0.354216
Sum of atomic charges:    0.0000000

LOEWDIN ATOMIC CHARGES
----------------------
   0 O :   -0.308903
   1 H :    0.162854
   2 H :    0.186953
   3 O :   -0.342429
   4 H :    0.155149
   5 H :    0.185574
   6 O :   -0.312663
   7 H :    0.158798
   8 H :    0.186943
   9 O :   -0.374819
  10 H :    0.135677
  11 H :    0.141438
  12 O :   -0.301983
  13 H :    0.151605
  14 H :    0.173961
  15 O :   -0.340994
  16 H :    0.158190
  17 H :    0.184652

  Mayer bond orders larger than 0.100000
B(  0-O ,  1-H ) :   0.8424 B(  0-O ,  2-H ) :   0.8286 B(  3-O ,  4-H ) :   0.8563
B(  3-O ,  5-H ) :   0.8315 B(  6-O ,  7-H ) :   0.8467 B(  6-O ,  8-H ) :   0.8267
B(  9-O , 10-H ) :   0.8054 B(  9-O , 11-H ) :   0.8341 B( 12-O , 13-H ) :   0.8075
B( 12-O , 14-H ) :   0.8377 B( 15-O , 16-H ) :   0.8526 B( 15-O , 17-H ) :   0.8360

MP2 TOTAL ENERGY:     -457.901687035 Eh
FINAL SINGLE POINT ENERGY      -457.901687035477

DIPOLE MOMENT
-------------
                                X             Y             Z
Electronic contribution:      0.07782       0.07012       0.02007
Nuclear contribution   :     -0.00045       0.90834       0.00000
                        -----------------------------------------
Total Dipole Moment    :      0.07737       0.97845       0.02007
                        -----------------------------------------
Magnitude (a.u.)       :      0.98171
Magnitude (Debye)      :      2.49532

Rotational constants in cm-1:     0.040622     0.021928     0.021303
Rotational constants in MHz :  1217.801977   657.387237   638.660256

                             ****ORCA TERMINATED NORMALLY****
TOTAL RUN TIME: 0 days 0 hours 0 minutes 53 seconds 135 msec
