                         Program Version 4.2.0 -  RELEASE  -
|  1> # 12h2o.su.etal.mol0,1,2,5,6,7,10
|  2> ! MP2 def2-TZVP EnGrad TightSCF
|  3>
|  4> %pal
|  5>     nprocs 6
|  6> end
|  7>
|  8> %maxcore 8000
|  9>
| 10> %scf
| 11>     ConvForced true
| 12> end
| 13>
| 14> *xyz 0 1
| 15> O   1.794470000   0.923410000   2.768350000
| 16> H   2.338250000   1.359750000   3.430940000
| 17> H   0.879480000   1.303000000   2.865760000
| 18> O  -1.794470000  -0.923410000   2.768350000
| 19> H  -2.338250000  -1.359750000   3.430940000
| 20> H  -0.879480000  -1.303000000   2.865760000
| 21> O   0.923410000  -1.794470000  -2.768350000
| 22> H   1.359750000  -2.338250000  -3.430940000
| 23> H   1.303000000  -0.879480000  -2.865760000
| 24> O   0.885520000  -1.737840000   0.052730000
| 25> H   1.284090000  -0.839590000   0.017130000
| 26> H   1.032320000  -2.090180000  -0.841890000
| 27> O   1.737840000   0.885520000  -0.052730000
| 28> H   2.090180000   1.032320000   0.841890000
| 29> H   0.839590000   1.284090000  -0.017130000
| 30> O  -1.737840000  -0.885520000  -0.052730000
| 31> H  -2.090180000  -1.032320000   0.841890000
| 32> H  -0.839590000  -1.284090000  -0.017130000
| 33> O  -0.923410000   1.794470000  -2.768350000
| 34> H  -1.359750000   2.338250000  -3.430940000
| 35> H  -1.303000000   0.879480000  -2.865760000
| 36> *
| 37>
| 38>                          ****END OF INPUT****

CARTESIAN COORDINATES (ANGSTROEM)
---------------------------------
  O      1.794470    0.923410    2.768350
  H      2.338250    1.359750    3.430940
  H      0.879480    1.303000    2.865760
  O     -1.794470   -0.923410    2.768350
  H     -2.338250   -1.359750    3.430940
  H     -0.879480   -1.303000    2.865760
  O      0.923410   -1.794470   -2.768350
  H      1.359750   -2.338250   -3.430940
  H      1.303000   -0.879480   -2.865760
  O      0.885520   -1.737840    0.052730
  H      1.284090   -0.839590    0.017130
  H      1.032320   -2.090180   -0.841890
  O      1.737840    0.885520   -0.052730
  H      2.090180    1.032320    0.841890
  H      0.839590    1.284090   -0.017130
  O     -1.737840   -0.885520   -0.052730
  H     -2.090180   -1.032320    0.841890
  H     -0.839590   -1.284090   -0.017130
  O     -0.923410    1.794470   -2.768350
  H     -1.359750    2.338250   -3.430940
  H     -1.303000    0.879480   -2.865760

 Total Charge           Charge          ....    0
 Multiplicity           Mult            ....    1
 Number of Electrons    NEL             ....   70
 Basis Dimension        Dim             ....  301

ORBITAL ENERGIES
----------------

  NO   OCC          E(Eh)            E(eV)
   0   2.0000     -20.593926      -560.3892
   1   2.0000     -20.573057      -559.8213
   2   2.0000     -20.572620      -559.8095
   3   2.0000     -20.552852      -559.2715
   4   2.0000     -20.547404      -559.1233
   5   2.0000     -20.511359      -558.1424
   6   2.0000     -20.477946      -557.2332
   7   2.0000      -1.372112       -37.3371
   8   2.0000      -1.350962       -36.7615
   9   2.0000      -1.350701       -36.7544
  10   2.0000      -1.336843       -36.3774
  11   2.0000      -1.322763       -35.9942
  12   2.0000      -1.300005       -35.3749
  13   2.0000      -1.261638       -34.3309
  14   2.0000      -0.738642       -20.0995
  15   2.0000      -0.717579       -19.5263
  16   2.0000      -0.717163       -19.5150
  17   2.0000      -0.700133       -19.0516
  18   2.0000      -0.690522       -18.7901
  19   2.0000      -0.675276       -18.3752
  20   2.0000      -0.644763       -17.5449
  21   2.0000      -0.613289       -16.6884
  22   2.0000      -0.595931       -16.2161
  23   2.0000      -0.587034       -15.9740
  24   2.0000      -0.576030       -15.6746
  25   2.0000      -0.559895       -15.2355
  26   2.0000      -0.552107       -15.0236
  27   2.0000      -0.533484       -14.5168
  28   2.0000      -0.528971       -14.3940
  29   2.0000      -0.510166       -13.8823
  30   2.0000      -0.497708       -13.5433
  31   2.0000      -0.490886       -13.3577
  32   2.0000      -0.486930       -13.2500
  33   2.0000      -0.453689       -12.3455
  34   2.0000      -0.429241       -11.6802
  35   0.0000       0.099317         2.7025
  36   0.0000       0.122276         3.3273
  37   0.0000       0.135984         3.7003
  38   0.0000       0.150611         4.0983
  39   0.0000       0.178079         4.8458

MULLIKEN ATOMIC CHARGES
-----------------------
   0 O :   -0.699443
   1 H :    0.352819
   2 H :    0.361342
   3 O :   -0.700661
   4 H :    0.343826
   5 H :    0.363413
   6 O :   -0.697802
   7 H :    0.344730
   8 H :    0.365785
   9 O :   -0.735318
  10 H :    0.358318
  11 H :    0.368408
  12 O :   -0.709743
  13 H :    0.374557
  14 H :    0.358505
  15 O :   -0.745862
  16 H :    0.350471
  17 H :    0.346507
  18 O :   -0.695039
  19 H :    0.333018
  20 H :    0.362169
Sum of atomic charges:   -0.0000000

LOEWDIN ATOMIC CHARGES
----------------------
   0 O :   -0.310525
   1 H :    0.163892
   2 H :    0.187566
   3 O :   -0.314206
   4 H :    0.159424
   5 H :    0.187139
   6 O :   -0.310481
   7 H :    0.160084
   8 H :    0.188656
   9 O :   -0.323672
  10 H :    0.139465
  11 H :    0.147037
  12 O :   -0.300754
  13 H :    0.151735
  14 H :    0.176902
  15 O :   -0.377519
  16 H :    0.140180
  17 H :    0.135183
  18 O :   -0.342708
  19 H :    0.155620
  20 H :    0.186982

  Mayer bond orders larger than 0.100000
B(  0-O ,  1-H ) :   0.8412 B(  0-O ,  2-H ) :   0.8277 B(  3-O ,  4-H ) :   0.8459
B(  3-O ,  5-H ) :   0.8261 B(  6-O ,  7-H ) :   0.8457 B(  6-O ,  8-H ) :   0.8246
B(  9-O , 10-H ) :   0.7848 B(  9-O , 11-H ) :   0.8154 B( 12-O , 13-H ) :   0.8072
B( 12-O , 14-H ) :   0.8286 B( 15-O , 16-H ) :   0.8357 B( 15-O , 17-H ) :   0.7916
B( 18-O , 19-H ) :   0.8556 B( 18-O , 20-H ) :   0.8292

MP2 TOTAL ENERGY:     -534.234923591 Eh
FINAL SINGLE POINT ENERGY      -534.234923590605

DIPOLE MOMENT
-------------
                                X             Y             Z
Electronic contribution:      0.24603       0.08698       0.03716
Nuclear contribution   :      0.45394       0.45439       0.77428
                        -----------------------------------------
Total Dipole Moment    :      0.69998       0.54137       0.81144
                        -----------------------------------------
Magnitude (a.u.)       :      1.20062
Magnitude (Debye)      :      3.05173

Rotational constants in cm-1:     0.033947     0.021530     0.019597
Rotational constants in MHz :  1017.700676   645.452696   587.506091

                             ****ORCA TERMINATED NORMALLY****
TOTAL RUN TIME: 0 days 0 hours 2 minutes 17 seconds 581 msec
