                         Program Version 4.2.0 -  RELEASE  -
|  1> ! MP2 def2-TZVP EnGrad TightSCF FrozenCore
|  2>
|  3> %pal
|  4>     nprocs 8
|  5> end
|  6>
|  7> %maxcore 8000
|  8>
|  9> %scf
| 10>     ConvForced true
| 11> end
| 12>
| 13> *xyz 0 1
| 14> O   1.347645749  -1.944003820  -0.062507012
| 15> H   0.397445749  -2.040603820  -0.284707012
| 16> H   1.551145749  -2.713303820   0.483192988
| 17> O  -1.452154251  -1.885403820  -0.455707012
| 18> H  -1.604954251  -0.944403820  -0.230307012
| 19> H  -2.020454251  -2.371103820   0.154592988
| 20> O  -1.450254251   0.795796180   0.441792988
| 21> H  -2.010954251   1.157296180   1.139292988
| 22> H  -0.547154251   0.684196180   0.848692988
| 23> O   1.136245749   0.604296180   1.069692988
| 24> H   1.329245749   1.235996180   0.353092988
| 25> H   1.379745749  -0.273303820   0.704292988
| 26> O   0.509545749   2.420196180  -1.085207012
| 27> H   0.441545749   3.356696180  -0.859507012
| 28> H  -0.360654251   2.053296180  -0.849207012
| 29> *
| 30>
| 31>
| 32>                          ****END OF INPUT****

CARTESIAN COORDINATES (ANGSTROEM)
---------------------------------
  O      1.347646   -1.944004   -0.062507
  H      0.397446   -2.040604   -0.284707
  H      1.551146   -2.713304    0.483193
  O     -1.452154   -1.885404   -0.455707
  H     -1.604954   -0.944404   -0.230307
  H     -2.020454   -2.371104    0.154593
  O     -1.450254    0.795796    0.441793
  H     -2.010954    1.157296    1.139293
  H     -0.547154    0.684196    0.848693
  O      1.136246    0.604296    1.069693
  H      1.329246    1.235996    0.353093
  H      1.379746   -0.273304    0.704293
  O      0.509546    2.420196   -1.085207
  H      0.441546    3.356696   -0.859507
  H     -0.360654    2.053296   -0.849207

 Total Charge           Charge          ....    0
 Multiplicity           Mult            ....    1
 Number of Electrons    NEL             ....   50
 Basis Dimension        Dim             ....  215

ORBITAL ENERGIES
----------------

  NO   OCC          E(Eh)            E(eV)
   0   2.0000     -20.570706      -559.7574
   1   2.0000     -20.562707      -559.5397
   2   2.0000     -20.562544      -559.5353
   3   2.0000     -20.554458      -559.3152
   4   2.0000     -20.543350      -559.0130
   5   2.0000      -1.365037       -37.1446
   6   2.0000      -1.350677       -36.7538
   7   2.0000      -1.345589       -36.6153
   8   2.0000      -1.340255       -36.4702
   9   2.0000      -1.324160       -36.0322
  10   2.0000      -0.737216       -20.0607
  11   2.0000      -0.721044       -19.6206
  12   2.0000      -0.709290       -19.3007
  13   2.0000      -0.706783       -19.2325
  14   2.0000      -0.698749       -19.0139
  15   2.0000      -0.616249       -16.7690
  16   2.0000      -0.597491       -16.2586
  17   2.0000      -0.586771       -15.9669
  18   2.0000      -0.583474       -15.8771
  19   2.0000      -0.556729       -15.1494
  20   2.0000      -0.520945       -14.1756
  21   2.0000      -0.511015       -13.9054
  22   2.0000      -0.506151       -13.7731
  23   2.0000      -0.499267       -13.5857
  24   2.0000      -0.489312       -13.3148
  25   0.0000       0.111536         3.0351
  26   0.0000       0.139992         3.8094
  27   0.0000       0.155744         4.2380
  28   0.0000       0.172707         4.6996
  29   0.0000       0.233662         6.3583

MULLIKEN ATOMIC CHARGES
-----------------------
   0 O :   -0.722834
   1 H :    0.384920
   2 H :    0.339670
   3 O :   -0.721095
   4 H :    0.387203
   5 H :    0.338247
   6 O :   -0.759464
   7 H :    0.346921
   8 H :    0.383111
   9 O :   -0.740620
  10 H :    0.372323
  11 H :    0.389474
  12 O :   -0.703010
  13 H :    0.340518
  14 H :    0.364637
Sum of atomic charges:    0.0000000

LOEWDIN ATOMIC CHARGES
----------------------
   0 O :   -0.311513
   1 H :    0.154967
   2 H :    0.159956
   3 O :   -0.311195
   4 H :    0.155196
   5 H :    0.159315
   6 O :   -0.324189
   7 H :    0.159244
   8 H :    0.147664
   9 O :   -0.304581
  10 H :    0.154902
  11 H :    0.153193
  12 O :   -0.311715
  13 H :    0.161913
  14 H :    0.156843

  Mayer bond orders larger than 0.100000
B(  0-O ,  1-H ) :   0.7829 B(  0-O ,  2-H ) :   0.8485 B(  3-O ,  4-H ) :   0.7863
B(  3-O ,  5-H ) :   0.8493 B(  6-O ,  7-H ) :   0.8423 B(  6-O ,  8-H ) :   0.7220
B(  8-H ,  9-O ) :   0.1290 B(  9-O , 10-H ) :   0.8057 B(  9-O , 11-H ) :   0.7759
B( 12-O , 13-H ) :   0.8487 B( 12-O , 14-H ) :   0.8143

MP2 TOTAL ENERGY:     -381.623458455 Eh
FINAL SINGLE POINT ENERGY      -381.623458455098

DIPOLE MOMENT
-------------
                                X             Y             Z
Electronic contribution:      0.24807      -0.03388      -0.26413
Nuclear contribution   :     -1.35433       0.13567       1.36782
                        -----------------------------------------
Total Dipole Moment    :     -1.10627       0.10179       1.10369
                        -----------------------------------------
Magnitude (a.u.)       :      1.56599
Magnitude (Debye)      :      3.98043

Rotational constants in cm-1:     0.091273     0.053866     0.041611
Rotational constants in MHz :  2736.310298  1614.852455  1247.467071

                             ****ORCA TERMINATED NORMALLY****
TOTAL RUN TIME: 0 days 0 hours 0 minutes 38 seconds 998 msec
