                         Program Version 4.2.0 -  RELEASE  -
|  1> # 12mecn.remya.etal.2.mol4,5,7
|  2> ! MP2 def2-TZVP EnGrad TightSCF
|  3>
|  4> %pal
|  5>     nprocs 6
|  6> end
|  7>
|  8> %maxcore 8000
|  9>
| 10> %scf
| 11>     ConvForced true
| 12> end
| 13>
| 14> *xyz 0 1
| 15> C  -1.509690000  -0.693960000  -1.610140000
| 16> H  -1.327010000  -1.692700000  -2.017370000
| 17> H  -0.742170000  -0.000650000  -1.964400000
| 18> H  -2.491920000  -0.334310000  -1.929350000
| 19> C  -1.473570000  -0.748120000  -0.167200000
| 20> N  -1.447490000  -0.793720000   0.998938000
| 21> C  -1.955700000   2.515080000   1.698463000
| 22> H  -2.923830000   2.883163000   2.049269000
| 23> H  -1.154850000   3.171830000   2.050990000
| 24> H  -1.790380000   1.506115000   2.087896000
| 25> C  -1.948230000   2.482156000   0.253672000
| 26> N  -1.937550000   2.462523000  -0.913150000
| 27> C   1.502241000   0.651296000   1.710523000
| 28> H   1.309219000   1.637164000   2.143202000
| 29> H   2.493408000   0.297996000   2.009069000
| 30> H   0.746597000  -0.059850000   2.055508000
| 31> C   1.447974000   0.738517000   0.269805000
| 32> N   1.405612000   0.808047000  -0.894380000
| 33> *
| 34>
| 35>                          ****END OF INPUT****

CARTESIAN COORDINATES (ANGSTROEM)
---------------------------------
  C     -1.509690   -0.693960   -1.610140
  H     -1.327010   -1.692700   -2.017370
  H     -0.742170   -0.000650   -1.964400
  H     -2.491920   -0.334310   -1.929350
  C     -1.473570   -0.748120   -0.167200
  N     -1.447490   -0.793720    0.998938
  C     -1.955700    2.515080    1.698463
  H     -2.923830    2.883163    2.049269
  H     -1.154850    3.171830    2.050990
  H     -1.790380    1.506115    2.087896
  C     -1.948230    2.482156    0.253672
  N     -1.937550    2.462523   -0.913150
  C      1.502241    0.651296    1.710523
  H      1.309219    1.637164    2.143202
  H      2.493408    0.297996    2.009069
  H      0.746597   -0.059850    2.055508
  C      1.447974    0.738517    0.269805
  N      1.405612    0.808047   -0.894380

 Total Charge           Charge          ....    0
 Multiplicity           Mult            ....    1
 Number of Electrons    NEL             ....   66
 Basis Dimension        Dim             ....  333

ORBITAL ENERGIES
----------------

  NO   OCC          E(Eh)            E(eV)
   0   2.0000     -15.570192      -423.6865
   1   2.0000     -15.569910      -423.6788
   2   2.0000     -15.568587      -423.6428
   3   2.0000     -11.284751      -307.0737
   4   2.0000     -11.280040      -306.9455
   5   2.0000     -11.279422      -306.9287
   6   2.0000     -11.277577      -306.8785
   7   2.0000     -11.277222      -306.8688
   8   2.0000     -11.261354      -306.4370
   9   2.0000      -1.218328       -33.1524
  10   2.0000      -1.212969       -33.0066
  11   2.0000      -1.212013       -32.9805
  12   2.0000      -1.040512       -28.3138
  13   2.0000      -1.037854       -28.2414
  14   2.0000      -1.027155       -27.9503
  15   2.0000      -0.697044       -18.9675
  16   2.0000      -0.693691       -18.8763
  17   2.0000      -0.684556       -18.6277
  18   2.0000      -0.635815       -17.3014
  19   2.0000      -0.632219       -17.2036
  20   2.0000      -0.626832       -17.0570
  21   2.0000      -0.622358       -16.9352
  22   2.0000      -0.612251       -16.6602
  23   2.0000      -0.609520       -16.5859
  24   2.0000      -0.559142       -15.2150
  25   2.0000      -0.554206       -15.0807
  26   2.0000      -0.554149       -15.0792
  27   2.0000      -0.464367       -12.6361
  28   2.0000      -0.459994       -12.5171
  29   2.0000      -0.458566       -12.4782
  30   2.0000      -0.454076       -12.3560
  31   2.0000      -0.452610       -12.3161
  32   2.0000      -0.448898       -12.2151
  33   0.0000       0.112017         3.0481
  34   0.0000       0.148618         4.0441
  35   0.0000       0.154165         4.1950
  36   0.0000       0.159647         4.3442
  37   0.0000       0.166757         4.5377

MULLIKEN ATOMIC CHARGES
-----------------------
   0 C :   -0.266855
   1 H :    0.167247
   2 H :    0.212547
   3 H :    0.170775
   4 C :   -0.089725
   5 N :   -0.194231
   6 C :   -0.298311
   7 H :    0.176826
   8 H :    0.162590
   9 H :    0.199159
  10 C :   -0.124612
  11 N :   -0.115578
  12 C :   -0.293482
  13 H :    0.157656
  14 H :    0.176283
  15 H :    0.203269
  16 C :   -0.114855
  17 N :   -0.128703
Sum of atomic charges:   -0.0000000

LOEWDIN ATOMIC CHARGES
----------------------
   0 C :   -0.282339
   1 H :    0.150561
   2 H :    0.160631
   3 H :    0.155385
   4 C :   -0.202736
   5 N :    0.014965
   6 C :   -0.286578
   7 H :    0.152967
   8 H :    0.149157
   9 H :    0.154061
  10 C :   -0.214954
  11 N :    0.048508
  12 C :   -0.286286
  13 H :    0.148527
  14 H :    0.152502
  15 H :    0.156049
  16 C :   -0.214341
  17 N :    0.043920

  Mayer bond orders larger than 0.100000
B(  0-C ,  1-H ) :   0.9081 B(  0-C ,  2-H ) :   0.8984 B(  0-C ,  3-H ) :   0.9131
B(  0-C ,  4-C ) :   0.9104 B(  4-C ,  5-N ) :   2.7215 B(  6-C ,  7-H ) :   0.9099
B(  6-C ,  8-H ) :   0.9228 B(  6-C ,  9-H ) :   0.9067 B(  6-C , 10-C ) :   0.8940
B( 10-C , 11-N ) :   2.7932 B( 12-C , 13-H ) :   0.9189 B( 12-C , 14-H ) :   0.9121
B( 12-C , 15-H ) :   0.9079 B( 12-C , 16-C ) :   0.8938 B( 16-C , 17-N ) :   2.7730

MP2 TOTAL ENERGY:     -397.466607963 Eh
FINAL SINGLE POINT ENERGY      -397.466607962864

DIPOLE MOMENT
-------------
                                X             Y             Z
Electronic contribution:     -0.02309      -0.00384      -3.27288
Nuclear contribution   :      0.03178      -0.01173       4.63031
                        -----------------------------------------
Total Dipole Moment    :      0.00869      -0.01558       1.35743
                        -----------------------------------------
Magnitude (a.u.)       :      1.35755
Magnitude (Debye)      :      3.45061

Rotational constants in cm-1:     0.045428     0.038388     0.030927
Rotational constants in MHz :  1361.911793  1150.831489   927.160468

                             ****ORCA TERMINATED NORMALLY****
TOTAL RUN TIME: 0 days 0 hours 4 minutes 58 seconds 477 msec
