                         Program Version 4.2.0 -  RELEASE  -
|  1> ! MP2 def2-TZVP EnGrad TightSCF FrozenCore
|  2>
|  3> %pal
|  4>     nprocs 12
|  5> end
|  6>
|  7> %maxcore 8000
|  8>
|  9> %scf
| 10>     ConvForced true
| 11> end
| 12>
| 13> *xyz 0 1
| 14> O    -1.1049503873    -0.4638445857    -1.2752983367
| 15> H    -0.1714483929    -0.4652131421    -0.94773059
| 16> C    -1.0892151894    -0.4860762058    -2.699073197
| 17> H    -2.1283624778    -0.493713378     -3.0386085769
| 18> H    -0.5938324023    -1.3894504446    -3.0780794083
| 19> H    -0.5907005527     0.3968266212    -3.1246804969
| 20> O    -1.8770745538     1.7773779938     0.0594811294
| 21> H    -1.698980379      0.9765559647    -0.4971724183
| 22> C    -2.9582778361     1.4763839232     0.9324573483
| 23> H    -3.1359863637     2.3570289583     1.556342731
| 24> H    -2.7432163512     0.6192579735     1.5871922656
| 25> H    -3.8773876656     1.261588442      0.3705864638
| 26> O     0.6432550401     2.0920769812     1.0213884725
| 27> H    -0.3016582681     2.1047328709     0.7140496
| 28> C     0.662054735      2.2068879929     2.4390922451
| 29> H     1.7062125275     2.1660379259     2.7610415883
| 30> H     0.1134018011     1.3919976749     2.9336116325
| 31> H     0.2373815214     3.1656849743     2.7654029933
| 32> O     1.3836843719    -0.1916442967    -0.1492205193
| 33> H     1.200427184      0.6520549639     0.3527973554
| 34> C     2.5401108915    -0.0142734761    -0.9691435046
| 35> H     2.7626446142    -0.9851155929    -1.4174359529
| 36> H     3.4027201792     0.3044053749    -0.3710756661
| 37> H     2.3660034814     0.7254822697    -1.761720512
| 38> O     1.6144272534    -2.9518502489     0.2886310819
| 39> H     1.5295092565    -1.9897395074     0.4258854243
| 40> C     0.3094545582    -3.4980192119     0.3297956302
| 41> H     0.3700761641    -4.5279810123    -0.0374673292
| 42> H    -0.4016027855    -2.945855928     -0.3037077252
| 43> H    -0.1046978401    -3.5309298925     1.3521428678
| 44> *
| 45>
| 46>                          ****END OF INPUT****

CARTESIAN COORDINATES (ANGSTROEM)
---------------------------------
  O     -1.104950   -0.463845   -1.275298
  H     -0.171448   -0.465213   -0.947731
  C     -1.089215   -0.486076   -2.699073
  H     -2.128362   -0.493713   -3.038609
  H     -0.593832   -1.389450   -3.078079
  H     -0.590701    0.396827   -3.124680
  O     -1.877075    1.777378    0.059481
  H     -1.698980    0.976556   -0.497172
  C     -2.958278    1.476384    0.932457
  H     -3.135986    2.357029    1.556343
  H     -2.743216    0.619258    1.587192
  H     -3.877388    1.261588    0.370586
  O      0.643255    2.092077    1.021388
  H     -0.301658    2.104733    0.714050
  C      0.662055    2.206888    2.439092
  H      1.706213    2.166038    2.761042
  H      0.113402    1.391998    2.933612
  H      0.237382    3.165685    2.765403
  O      1.383684   -0.191644   -0.149221
  H      1.200427    0.652055    0.352797
  C      2.540111   -0.014273   -0.969144
  H      2.762645   -0.985116   -1.417436
  H      3.402720    0.304405   -0.371076
  H      2.366003    0.725482   -1.761721
  O      1.614427   -2.951850    0.288631
  H      1.529509   -1.989740    0.425885
  C      0.309455   -3.498019    0.329796
  H      0.370076   -4.527981   -0.037467
  H     -0.401603   -2.945856   -0.303708
  H     -0.104698   -3.530930    1.352143

 Total Charge           Charge          ....    0
 Multiplicity           Mult            ....    1
 Number of Electrons    NEL             ....   90
 Basis Dimension        Dim             ....  430

ORBITAL ENERGIES
----------------

  NO   OCC          E(Eh)            E(eV)
   0   2.0000     -20.564523      -559.5891
   1   2.0000     -20.560285      -559.4738
   2   2.0000     -20.559786      -559.4602
   3   2.0000     -20.556340      -559.3664
   4   2.0000     -20.525292      -558.5216
   5   2.0000     -11.278357      -306.8997
   6   2.0000     -11.277611      -306.8794
   7   2.0000     -11.276681      -306.8541
   8   2.0000     -11.275856      -306.8316
   9   2.0000     -11.250801      -306.1499
  10   2.0000      -1.377013       -37.4704
  11   2.0000      -1.361040       -37.0358
  12   2.0000      -1.359636       -36.9976
  13   2.0000      -1.344358       -36.5818
  14   2.0000      -1.326405       -36.0933
  15   2.0000      -0.936866       -25.4934
  16   2.0000      -0.929686       -25.2980
  17   2.0000      -0.927608       -25.2415
  18   2.0000      -0.920212       -25.0402
  19   2.0000      -0.899129       -24.4666
  20   2.0000      -0.725186       -19.7333
  21   2.0000      -0.705513       -19.1980
  22   2.0000      -0.701072       -19.0771
  23   2.0000      -0.693844       -18.8805
  24   2.0000      -0.666566       -18.1382
  25   2.0000      -0.626047       -17.0356
  26   2.0000      -0.624143       -16.9838
  27   2.0000      -0.622187       -16.9306
  28   2.0000      -0.618638       -16.8340
  29   2.0000      -0.604915       -16.4606
  30   2.0000      -0.603371       -16.4186
  31   2.0000      -0.596499       -16.2316
  32   2.0000      -0.592495       -16.1226
  33   2.0000      -0.591333       -16.0910
  34   2.0000      -0.568529       -15.4705
  35   2.0000      -0.532451       -14.4887
  36   2.0000      -0.514276       -13.9942
  37   2.0000      -0.512754       -13.9528
  38   2.0000      -0.496067       -13.4987
  39   2.0000      -0.478235       -13.0134
  40   2.0000      -0.459654       -12.5078
  41   2.0000      -0.456885       -12.4325
  42   2.0000      -0.452079       -12.3017
  43   2.0000      -0.448760       -12.2114
  44   2.0000      -0.422939       -11.5088
  45   0.0000       0.120173         3.2701
  46   0.0000       0.135690         3.6923
  47   0.0000       0.158423         4.3109
  48   0.0000       0.170587         4.6419
  49   0.0000       0.181543         4.9400

MULLIKEN ATOMIC CHARGES
-----------------------
   0 O :   -0.559501
   1 H :    0.371582
   2 C :   -0.186183
   3 H :    0.132643
   4 H :    0.131224
   5 H :    0.123927
   6 O :   -0.563341
   7 H :    0.365017
   8 C :   -0.172537
   9 H :    0.127707
  10 H :    0.118764
  11 H :    0.123972
  12 O :   -0.554978
  13 H :    0.375440
  14 C :   -0.184759
  15 H :    0.134050
  16 H :    0.120213
  17 H :    0.125787
  18 O :   -0.609361
  19 H :    0.374354
  20 C :   -0.179490
  21 H :    0.154017
  22 H :    0.129580
  23 H :    0.123012
  24 O :   -0.512476
  25 H :    0.343823
  26 C :   -0.183225
  27 H :    0.118481
  28 H :    0.112243
  29 H :    0.100018
Sum of atomic charges:   -0.0000000

LOEWDIN ATOMIC CHARGES
----------------------
   0 O :   -0.084489
   1 H :    0.163820
   2 C :   -0.382604
   3 H :    0.110590
   4 H :    0.105104
   5 H :    0.100234
   6 O :   -0.089745
   7 H :    0.165539
   8 C :   -0.385213
   9 H :    0.108635
  10 H :    0.099212
  11 H :    0.104080
  12 O :   -0.083849
  13 H :    0.167081
  14 C :   -0.383367
  15 H :    0.110557
  16 H :    0.099373
  17 H :    0.104570
  18 O :   -0.096097
  19 H :    0.164614
  20 C :   -0.378734
  21 H :    0.114367
  22 H :    0.106398
  23 H :    0.101778
  24 O :   -0.098487
  25 H :    0.163137
  26 C :   -0.399011
  27 H :    0.105374
  28 H :    0.094276
  29 H :    0.092858

  Mayer bond orders larger than 0.100000
B(  0-O ,  1-H ) :   0.7474 B(  0-O ,  2-C ) :   0.8813 B(  0-O ,  7-H ) :   0.1143
B(  2-C ,  3-H ) :   0.9418 B(  2-C ,  4-H ) :   0.9363 B(  2-C ,  5-H ) :   0.9391
B(  6-O ,  7-H ) :   0.7507 B(  6-O ,  8-C ) :   0.8838 B(  6-O , 13-H ) :   0.1039
B(  8-C ,  9-H ) :   0.9411 B(  8-C , 10-H ) :   0.9372 B(  8-C , 11-H ) :   0.9399
B( 12-O , 13-H ) :   0.7479 B( 12-O , 14-C ) :   0.8849 B( 12-O , 19-H ) :   0.1394
B( 14-C , 15-H ) :   0.9420 B( 14-C , 16-H ) :   0.9374 B( 14-C , 17-H ) :   0.9382
B( 18-O , 19-H ) :   0.7197 B( 18-O , 20-C ) :   0.8436 B( 20-C , 21-H ) :   0.9361
B( 20-C , 22-H ) :   0.9398 B( 20-C , 23-H ) :   0.9359 B( 24-O , 25-H ) :   0.8104
B( 24-O , 26-C ) :   0.9420 B( 26-C , 27-H ) :   0.9400 B( 26-C , 28-H ) :   0.9301
B( 26-C , 29-H ) :   0.9431

MP2 TOTAL ENERGY:     -577.600143859 Eh
FINAL SINGLE POINT ENERGY      -577.600143858899

DIPOLE MOMENT
-------------
                                X             Y             Z
Electronic contribution:      1.61167       0.92563      -0.24823
Nuclear contribution   :     -2.16187      -0.21334       0.25374
                        -----------------------------------------
Total Dipole Moment    :     -0.55019       0.71229       0.00552
                        -----------------------------------------
Magnitude (a.u.)       :      0.90006
Magnitude (Debye)      :      2.28776

Rotational constants in cm-1:     0.028314     0.018604     0.015246
Rotational constants in MHz :   848.835771   557.734448   457.077137

                             ****ORCA TERMINATED NORMALLY****
TOTAL RUN TIME: 0 days 0 hours 5 minutes 33 seconds 461 msec
