                         Program Version 4.2.0 -  RELEASE  -
|  1> # 12h2o.su.etal.mol0,1,4,5,6,9,11
|  2> ! MP2 def2-TZVP EnGrad TightSCF
|  3>
|  4> %pal
|  5>     nprocs 6
|  6> end
|  7>
|  8> %maxcore 8000
|  9>
| 10> %scf
| 11>     ConvForced true
| 12> end
| 13>
| 14> *xyz 0 1
| 15> O   1.794470000   0.923410000   2.768350000
| 16> H   2.338250000   1.359750000   3.430940000
| 17> H   0.879480000   1.303000000   2.865760000
| 18> O  -1.794470000  -0.923410000   2.768350000
| 19> H  -2.338250000  -1.359750000   3.430940000
| 20> H  -0.879480000  -1.303000000   2.865760000
| 21> O  -0.885520000   1.737840000   0.052730000
| 22> H  -1.032320000   2.090180000  -0.841890000
| 23> H  -1.284090000   0.839590000   0.017130000
| 24> O   0.885520000  -1.737840000   0.052730000
| 25> H   1.284090000  -0.839590000   0.017130000
| 26> H   1.032320000  -2.090180000  -0.841890000
| 27> O   1.737840000   0.885520000  -0.052730000
| 28> H   2.090180000   1.032320000   0.841890000
| 29> H   0.839590000   1.284090000  -0.017130000
| 30> O   0.741530000  -1.752130000   2.896280000
| 31> H   0.920500000  -2.036450000   1.984040000
| 32> H   1.242140000  -0.921210000   2.984230000
| 33> O  -0.741530000   1.752130000   2.896280000
| 34> H  -0.920500000   2.036450000   1.984040000
| 35> H  -1.242140000   0.921210000   2.984230000
| 36> *
| 37>
| 38>                          ****END OF INPUT****

CARTESIAN COORDINATES (ANGSTROEM)
---------------------------------
  O      1.794470    0.923410    2.768350
  H      2.338250    1.359750    3.430940
  H      0.879480    1.303000    2.865760
  O     -1.794470   -0.923410    2.768350
  H     -2.338250   -1.359750    3.430940
  H     -0.879480   -1.303000    2.865760
  O     -0.885520    1.737840    0.052730
  H     -1.032320    2.090180   -0.841890
  H     -1.284090    0.839590    0.017130
  O      0.885520   -1.737840    0.052730
  H      1.284090   -0.839590    0.017130
  H      1.032320   -2.090180   -0.841890
  O      1.737840    0.885520   -0.052730
  H      2.090180    1.032320    0.841890
  H      0.839590    1.284090   -0.017130
  O      0.741530   -1.752130    2.896280
  H      0.920500   -2.036450    1.984040
  H      1.242140   -0.921210    2.984230
  O     -0.741530    1.752130    2.896280
  H     -0.920500    2.036450    1.984040
  H     -1.242140    0.921210    2.984230

 Total Charge           Charge          ....    0
 Multiplicity           Mult            ....    1
 Number of Electrons    NEL             ....   70
 Basis Dimension        Dim             ....  301

ORBITAL ENERGIES
----------------

  NO   OCC          E(Eh)            E(eV)
   0   2.0000     -20.618943      -561.0700
   1   2.0000     -20.562382      -559.5309
   2   2.0000     -20.555130      -559.3335
   3   2.0000     -20.545771      -559.0788
   4   2.0000     -20.542936      -559.0017
   5   2.0000     -20.539207      -558.9002
   6   2.0000     -20.538140      -558.8712
   7   2.0000      -1.402289       -38.1582
   8   2.0000      -1.359771       -37.0012
   9   2.0000      -1.342025       -36.5184
  10   2.0000      -1.337714       -36.4011
  11   2.0000      -1.333510       -36.2866
  12   2.0000      -1.322086       -35.9758
  13   2.0000      -1.313813       -35.7507
  14   2.0000      -0.760169       -20.6852
  15   2.0000      -0.727720       -19.8023
  16   2.0000      -0.717184       -19.5156
  17   2.0000      -0.708417       -19.2770
  18   2.0000      -0.703690       -19.1484
  19   2.0000      -0.700653       -19.0657
  20   2.0000      -0.691736       -18.8231
  21   2.0000      -0.647987       -17.6326
  22   2.0000      -0.615738       -16.7551
  23   2.0000      -0.599400       -16.3105
  24   2.0000      -0.590419       -16.0661
  25   2.0000      -0.573295       -15.6002
  26   2.0000      -0.568862       -15.4795
  27   2.0000      -0.546198       -14.8628
  28   2.0000      -0.537081       -14.6147
  29   2.0000      -0.508384       -13.8338
  30   2.0000      -0.501985       -13.6597
  31   2.0000      -0.497924       -13.5492
  32   2.0000      -0.489383       -13.3168
  33   2.0000      -0.488159       -13.2835
  34   2.0000      -0.483245       -13.1498
  35   0.0000       0.099701         2.7130
  36   0.0000       0.139240         3.7889
  37   0.0000       0.153887         4.1875
  38   0.0000       0.159575         4.3423
  39   0.0000       0.196796         5.3551

MULLIKEN ATOMIC CHARGES
-----------------------
   0 O :   -0.758526
   1 H :    0.349975
   2 H :    0.382429
   3 O :   -0.751320
   4 H :    0.339224
   5 H :    0.385804
   6 O :   -0.721460
   7 H :    0.369834
   8 H :    0.383684
   9 O :   -0.737329
  10 H :    0.360740
  11 H :    0.336997
  12 O :   -0.725875
  13 H :    0.378156
  14 H :    0.353155
  15 O :   -0.726828
  16 H :    0.387272
  17 H :    0.364950
  18 O :   -0.722582
  19 H :    0.379676
  20 H :    0.372024
Sum of atomic charges:   -0.0000000

LOEWDIN ATOMIC CHARGES
----------------------
   0 O :   -0.316596
   1 H :    0.158732
   2 H :    0.146051
   3 O :   -0.345403
   4 H :    0.154755
   5 H :    0.146136
   6 O :   -0.277795
   7 H :    0.178644
   8 H :    0.188819
   9 O :   -0.346385
  10 H :    0.143056
  11 H :    0.162738
  12 O :   -0.316310
  13 H :    0.149619
  14 H :    0.138031
  15 O :   -0.289452
  16 H :    0.158208
  17 H :    0.147818
  18 O :   -0.286021
  19 H :    0.153984
  20 H :    0.151372

  Mayer bond orders larger than 0.100000
B(  0-O ,  1-H ) :   0.8407 B(  0-O ,  2-H ) :   0.7272 B(  2-H , 18-O ) :   0.1230
B(  3-O ,  4-H ) :   0.8494 B(  3-O ,  5-H ) :   0.7366 B(  5-H , 15-O ) :   0.1197
B(  6-O ,  7-H ) :   0.8282 B(  6-O ,  8-H ) :   0.8101 B(  9-O , 10-H ) :   0.7619
B(  9-O , 11-H ) :   0.8502 B( 10-H , 12-O ) :   0.1128 B( 12-O , 13-H ) :   0.8020
B( 12-O , 14-H ) :   0.8005 B( 15-O , 16-H ) :   0.7985 B( 15-O , 17-H ) :   0.8030
B( 18-O , 19-H ) :   0.8149 B( 18-O , 20-H ) :   0.7839

MP2 TOTAL ENERGY:     -534.281532675 Eh
FINAL SINGLE POINT ENERGY      -534.281532675393

DIPOLE MOMENT
-------------
                                X             Y             Z
Electronic contribution:     -0.07390       0.21360       0.01970
Nuclear contribution   :     -0.45439       0.45394      -0.88130
                        -----------------------------------------
Total Dipole Moment    :     -0.52830       0.66755      -0.86160
                        -----------------------------------------
Magnitude (a.u.)       :      1.21123
Magnitude (Debye)      :      3.07870

Rotational constants in cm-1:     0.038590     0.036391     0.030171
Rotational constants in MHz :  1156.904828  1090.972744   904.513123

                             ****ORCA TERMINATED NORMALLY****
TOTAL RUN TIME: 0 days 0 hours 2 minutes 10 seconds 652 msec
