                         Program Version 4.2.0 -  RELEASE  -
|  1> # 12h2o.su.etal.mol2,3,4,5,6,8
|  2> ! MP2 def2-TZVP EnGrad TightSCF
|  3>
|  4> %pal
|  5>     nprocs 6
|  6> end
|  7>
|  8> %maxcore 8000
|  9>
| 10> %scf
| 11>     ConvForced true
| 12> end
| 13>
| 14> *xyz 0 1
| 15> O   0.923410000  -1.794470000  -2.768350000
| 16> H   1.359750000  -2.338250000  -3.430940000
| 17> H   1.303000000  -0.879480000  -2.865760000
| 18> O  -1.752130000  -0.741530000  -2.896280000
| 19> H  -2.036450000  -0.920500000  -1.984040000
| 20> H  -0.921210000  -1.242140000  -2.984230000
| 21> O  -0.885520000   1.737840000   0.052730000
| 22> H  -1.032320000   2.090180000  -0.841890000
| 23> H  -1.284090000   0.839590000   0.017130000
| 24> O   0.885520000  -1.737840000   0.052730000
| 25> H   1.284090000  -0.839590000   0.017130000
| 26> H   1.032320000  -2.090180000  -0.841890000
| 27> O   1.737840000   0.885520000  -0.052730000
| 28> H   2.090180000   1.032320000   0.841890000
| 29> H   0.839590000   1.284090000  -0.017130000
| 30> O   1.752130000   0.741530000  -2.896280000
| 31> H   2.036450000   0.920500000  -1.984040000
| 32> H   0.921210000   1.242140000  -2.984230000
| 33> *
| 34>
| 35>                          ****END OF INPUT****

CARTESIAN COORDINATES (ANGSTROEM)
---------------------------------
  O      0.923410   -1.794470   -2.768350
  H      1.359750   -2.338250   -3.430940
  H      1.303000   -0.879480   -2.865760
  O     -1.752130   -0.741530   -2.896280
  H     -2.036450   -0.920500   -1.984040
  H     -0.921210   -1.242140   -2.984230
  O     -0.885520    1.737840    0.052730
  H     -1.032320    2.090180   -0.841890
  H     -1.284090    0.839590    0.017130
  O      0.885520   -1.737840    0.052730
  H      1.284090   -0.839590    0.017130
  H      1.032320   -2.090180   -0.841890
  O      1.737840    0.885520   -0.052730
  H      2.090180    1.032320    0.841890
  H      0.839590    1.284090   -0.017130
  O      1.752130    0.741530   -2.896280
  H      2.036450    0.920500   -1.984040
  H      0.921210    1.242140   -2.984230

 Total Charge           Charge          ....    0
 Multiplicity           Mult            ....    1
 Number of Electrons    NEL             ....   60
 Basis Dimension        Dim             ....  258

ORBITAL ENERGIES
----------------

  NO   OCC          E(Eh)            E(eV)
   0   2.0000     -20.614301      -560.9437
   1   2.0000     -20.590948      -560.3082
   2   2.0000     -20.589313      -560.2637
   3   2.0000     -20.562953      -559.5464
   4   2.0000     -20.545639      -559.0753
   5   2.0000     -20.508967      -558.0774
   6   2.0000      -1.397535       -38.0289
   7   2.0000      -1.382692       -37.6250
   8   2.0000      -1.372640       -37.3514
   9   2.0000      -1.348775       -36.7020
  10   2.0000      -1.326870       -36.1060
  11   2.0000      -1.293298       -35.1924
  12   2.0000      -0.752245       -20.4696
  13   2.0000      -0.749921       -20.4064
  14   2.0000      -0.736098       -20.0302
  15   2.0000      -0.730468       -19.8770
  16   2.0000      -0.695742       -18.9321
  17   2.0000      -0.678506       -18.4631
  18   2.0000      -0.649654       -17.6780
  19   2.0000      -0.626487       -17.0476
  20   2.0000      -0.608779       -16.5657
  21   2.0000      -0.593433       -16.1481
  22   2.0000      -0.572381       -15.5753
  23   2.0000      -0.556065       -15.1313
  24   2.0000      -0.547747       -14.9049
  25   2.0000      -0.526424       -14.3247
  26   2.0000      -0.519424       -14.1343
  27   2.0000      -0.502481       -13.6732
  28   2.0000      -0.492757       -13.4086
  29   2.0000      -0.459837       -12.5128
  30   0.0000       0.080681         2.1954
  31   0.0000       0.137683         3.7465
  32   0.0000       0.141054         3.8383
  33   0.0000       0.143582         3.9071
  34   0.0000       0.190786         5.1916

MULLIKEN ATOMIC CHARGES
-----------------------
   0 O :   -0.750205
   1 H :    0.348102
   2 H :    0.382980
   3 O :   -0.713411
   4 H :    0.324726
   5 H :    0.367964
   6 O :   -0.684019
   7 H :    0.357761
   8 H :    0.367747
   9 O :   -0.737838
  10 H :    0.337380
  11 H :    0.361473
  12 O :   -0.737676
  13 H :    0.366483
  14 H :    0.366207
  15 O :   -0.695655
  16 H :    0.391767
  17 H :    0.346214
Sum of atomic charges:   -0.0000000

LOEWDIN ATOMIC CHARGES
----------------------
   0 O :   -0.313252
   1 H :    0.158100
   2 H :    0.146305
   3 O :   -0.348204
   4 H :    0.155542
   5 H :    0.148950
   6 O :   -0.284184
   7 H :    0.171978
   8 H :    0.182466
   9 O :   -0.371771
  10 H :    0.131952
  11 H :    0.143280
  12 O :   -0.298454
  13 H :    0.175556
  14 H :    0.145261
  15 O :   -0.271858
  16 H :    0.160018
  17 H :    0.168315

  Mayer bond orders larger than 0.100000
B(  0-O ,  1-H ) :   0.8413 B(  0-O ,  2-H ) :   0.7445 B(  3-O ,  4-H ) :   0.8579
B(  3-O ,  5-H ) :   0.8037 B(  6-O ,  7-H ) :   0.8359 B(  6-O ,  8-H ) :   0.8226
B(  9-O , 10-H ) :   0.8159 B(  9-O , 11-H ) :   0.8227 B( 12-O , 13-H ) :   0.8312
B( 12-O , 14-H ) :   0.7658 B( 15-O , 16-H ) :   0.7964 B( 15-O , 17-H ) :   0.8406

MP2 TOTAL ENERGY:     -457.933662808 Eh
FINAL SINGLE POINT ENERGY      -457.933662807896

DIPOLE MOMENT
-------------
                                X             Y             Z
Electronic contribution:      0.07237       0.36457       0.01929
Nuclear contribution   :      0.22475       0.76293      -0.03466
                        -----------------------------------------
Total Dipole Moment    :      0.29712       1.12749      -0.01537
                        -----------------------------------------
Magnitude (a.u.)       :      1.16609
Magnitude (Debye)      :      2.96395

Rotational constants in cm-1:     0.051346     0.040267     0.035630
Rotational constants in MHz :  1539.308214  1207.182049  1068.175066

                             ****ORCA TERMINATED NORMALLY****
TOTAL RUN TIME: 0 days 0 hours 1 minutes 18 seconds 116 msec
