                         Program Version 4.2.0 -  RELEASE  -
|  1> # 12h2o.su.etal.mol0,1,2,7,9
|  2> ! MP2 def2-TZVP EnGrad TightSCF
|  3>
|  4> %pal
|  5>     nprocs 6
|  6> end
|  7>
|  8> %maxcore 8000
|  9>
| 10> %scf
| 11>     ConvForced true
| 12> end
| 13>
| 14> *xyz 0 1
| 15> O   1.794470000   0.923410000   2.768350000
| 16> H   2.338250000   1.359750000   3.430940000
| 17> H   0.879480000   1.303000000   2.865760000
| 18> O  -1.794470000  -0.923410000   2.768350000
| 19> H  -2.338250000  -1.359750000   3.430940000
| 20> H  -0.879480000  -1.303000000   2.865760000
| 21> O   0.923410000  -1.794470000  -2.768350000
| 22> H   1.359750000  -2.338250000  -3.430940000
| 23> H   1.303000000  -0.879480000  -2.865760000
| 24> O  -1.737840000  -0.885520000  -0.052730000
| 25> H  -2.090180000  -1.032320000   0.841890000
| 26> H  -0.839590000  -1.284090000  -0.017130000
| 27> O   0.741530000  -1.752130000   2.896280000
| 28> H   0.920500000  -2.036450000   1.984040000
| 29> H   1.242140000  -0.921210000   2.984230000
| 30> *
| 31>
| 32>                          ****END OF INPUT****

CARTESIAN COORDINATES (ANGSTROEM)
---------------------------------
  O      1.794470    0.923410    2.768350
  H      2.338250    1.359750    3.430940
  H      0.879480    1.303000    2.865760
  O     -1.794470   -0.923410    2.768350
  H     -2.338250   -1.359750    3.430940
  H     -0.879480   -1.303000    2.865760
  O      0.923410   -1.794470   -2.768350
  H      1.359750   -2.338250   -3.430940
  H      1.303000   -0.879480   -2.865760
  O     -1.737840   -0.885520   -0.052730
  H     -2.090180   -1.032320    0.841890
  H     -0.839590   -1.284090   -0.017130
  O      0.741530   -1.752130    2.896280
  H      0.920500   -2.036450    1.984040
  H      1.242140   -0.921210    2.984230

 Total Charge           Charge          ....    0
 Multiplicity           Mult            ....    1
 Number of Electrons    NEL             ....   50
 Basis Dimension        Dim             ....  215

ORBITAL ENERGIES
----------------

  NO   OCC          E(Eh)            E(eV)
   0   2.0000     -20.599138      -560.5310
   1   2.0000     -20.578495      -559.9693
   2   2.0000     -20.561301      -559.5014
   3   2.0000     -20.538633      -558.8846
   4   2.0000     -20.513311      -558.1956
   5   2.0000      -1.378810       -37.5193
   6   2.0000      -1.365638       -37.1609
   7   2.0000      -1.336538       -36.3690
   8   2.0000      -1.323025       -36.0013
   9   2.0000      -1.291798       -35.1516
  10   2.0000      -0.745665       -20.2906
  11   2.0000      -0.726640       -19.7729
  12   2.0000      -0.707037       -19.2395
  13   2.0000      -0.704884       -19.1809
  14   2.0000      -0.661174       -17.9915
  15   2.0000      -0.625760       -17.0278
  16   2.0000      -0.600882       -16.3508
  17   2.0000      -0.572525       -15.5792
  18   2.0000      -0.568434       -15.4679
  19   2.0000      -0.540706       -14.7134
  20   2.0000      -0.536154       -14.5895
  21   2.0000      -0.513131       -13.9630
  22   2.0000      -0.504377       -13.7248
  23   2.0000      -0.484803       -13.1922
  24   2.0000      -0.459040       -12.4911
  25   0.0000       0.099195         2.6992
  26   0.0000       0.121969         3.3189
  27   0.0000       0.141514         3.8508
  28   0.0000       0.165266         4.4971
  29   0.0000       0.189340         5.1522

MULLIKEN ATOMIC CHARGES
-----------------------
   0 O :   -0.703191
   1 H :    0.356361
   2 H :    0.372043
   3 O :   -0.738483
   4 H :    0.334593
   5 H :    0.365004
   6 O :   -0.680504
   7 H :    0.337797
   8 H :    0.344658
   9 O :   -0.693924
  10 H :    0.364251
  11 H :    0.311072
  12 O :   -0.698739
  13 H :    0.351646
  14 H :    0.377417
Sum of atomic charges:   -0.0000000

LOEWDIN ATOMIC CHARGES
----------------------
   0 O :   -0.310738
   1 H :    0.165687
   2 H :    0.192979
   3 O :   -0.343181
   4 H :    0.152329
   5 H :    0.141567
   6 O :   -0.337579
   7 H :    0.157610
   8 H :    0.181774
   9 O :   -0.348431
  10 H :    0.147522
  11 H :    0.156577
  12 O :   -0.280031
  13 H :    0.169069
  14 H :    0.154845

  Mayer bond orders larger than 0.100000
B(  0-O ,  1-H ) :   0.8393 B(  0-O ,  2-H ) :   0.8216 B(  3-O ,  4-H ) :   0.8517
B(  3-O ,  5-H ) :   0.7619 B(  6-O ,  7-H ) :   0.8532 B(  6-O ,  8-H ) :   0.8442
B(  9-O , 10-H ) :   0.8154 B(  9-O , 11-H ) :   0.8631 B( 12-O , 13-H ) :   0.8406
B( 12-O , 14-H ) :   0.7941

MP2 TOTAL ENERGY:     -381.591260617 Eh
FINAL SINGLE POINT ENERGY      -381.591260616906

DIPOLE MOMENT
-------------
                                X             Y             Z
Electronic contribution:      0.10115       0.09998       0.06960
Nuclear contribution   :      1.69920       0.31000       0.72077
                        -----------------------------------------
Total Dipole Moment    :      1.80035       0.40998       0.79037
                        -----------------------------------------
Magnitude (a.u.)       :      2.00849
Magnitude (Debye)      :      5.10517

Rotational constants in cm-1:     0.063044     0.031083     0.024438
Rotational constants in MHz :  1890.019598   931.853712   732.624139

                             ****ORCA TERMINATED NORMALLY****
TOTAL RUN TIME: 0 days 0 hours 0 minutes 29 seconds 918 msec
