                         Program Version 4.2.0 -  RELEASE  -
|  1> # 12mecn.remya.etal.2.mol5,10,11
|  2> ! MP2 def2-TZVP EnGrad TightSCF
|  3>
|  4> %pal
|  5>     nprocs 6
|  6> end
|  7>
|  8> %maxcore 8000
|  9>
| 10> %scf
| 11>     ConvForced true
| 12> end
| 13>
| 14> *xyz 0 1
| 15> C  -1.955700000   2.515080000   1.698463000
| 16> H  -2.923830000   2.883163000   2.049269000
| 17> H  -1.154850000   3.171830000   2.050990000
| 18> H  -1.790380000   1.506115000   2.087896000
| 19> C  -1.948230000   2.482156000   0.253672000
| 20> N  -1.937550000   2.462523000  -0.913150000
| 21> C   4.602033000   0.321019000  -1.784800000
| 22> H   4.827650000  -0.662160000  -2.207910000
| 23> H   5.320558000   1.057980000  -2.148500000
| 24> H   3.601982000   0.643751000  -2.087520000
| 25> C   4.654967000   0.244048000  -0.343060000
| 26> N   4.691648000   0.166590000   0.820757000
| 27> C   4.214163000   3.378139000   1.593627000
| 28> H   3.242643000   3.657109000   2.012358000
| 29> H   4.969258000   4.086643000   1.941290000
| 30> H   4.482966000   2.372549000   1.931698000
| 31> C   4.130759000   3.388436000   0.150192000
| 32> N   4.050180000   3.381449000  -1.013420000
| 33> *
| 34>
| 35>                          ****END OF INPUT****

CARTESIAN COORDINATES (ANGSTROEM)
---------------------------------
  C     -1.955700    2.515080    1.698463
  H     -2.923830    2.883163    2.049269
  H     -1.154850    3.171830    2.050990
  H     -1.790380    1.506115    2.087896
  C     -1.948230    2.482156    0.253672
  N     -1.937550    2.462523   -0.913150
  C      4.602033    0.321019   -1.784800
  H      4.827650   -0.662160   -2.207910
  H      5.320558    1.057980   -2.148500
  H      3.601982    0.643751   -2.087520
  C      4.654967    0.244048   -0.343060
  N      4.691648    0.166590    0.820757
  C      4.214163    3.378139    1.593627
  H      3.242643    3.657109    2.012358
  H      4.969258    4.086643    1.941290
  H      4.482966    2.372549    1.931698
  C      4.130759    3.388436    0.150192
  N      4.050180    3.381449   -1.013420

 Total Charge           Charge          ....    0
 Multiplicity           Mult            ....    1
 Number of Electrons    NEL             ....   66
 Basis Dimension        Dim             ....  333

ORBITAL ENERGIES
----------------

  NO   OCC          E(Eh)            E(eV)
   0   2.0000     -15.573185      -423.7679
   1   2.0000     -15.571305      -423.7168
   2   2.0000     -15.570001      -423.6813
   3   2.0000     -11.286067      -307.1095
   4   2.0000     -11.282649      -307.0165
   5   2.0000     -11.282365      -307.0088
   6   2.0000     -11.279979      -306.9438
   7   2.0000     -11.273753      -306.7744
   8   2.0000     -11.270668      -306.6905
   9   2.0000      -1.218108       -33.1464
  10   2.0000      -1.214231       -33.0409
  11   2.0000      -1.213251       -33.0142
  12   2.0000      -1.044494       -28.4221
  13   2.0000      -1.036870       -28.2147
  14   2.0000      -1.032947       -28.1079
  15   2.0000      -0.700216       -19.0539
  16   2.0000      -0.695479       -18.9250
  17   2.0000      -0.690007       -18.7760
  18   2.0000      -0.633735       -17.2448
  19   2.0000      -0.631660       -17.1883
  20   2.0000      -0.631574       -17.1860
  21   2.0000      -0.624031       -16.9808
  22   2.0000      -0.616985       -16.7890
  23   2.0000      -0.615824       -16.7574
  24   2.0000      -0.558720       -15.2036
  25   2.0000      -0.555658       -15.1202
  26   2.0000      -0.555609       -15.1189
  27   2.0000      -0.462373       -12.5818
  28   2.0000      -0.458601       -12.4792
  29   2.0000      -0.457478       -12.4486
  30   2.0000      -0.457267       -12.4429
  31   2.0000      -0.456747       -12.4287
  32   2.0000      -0.452949       -12.3254
  33   0.0000       0.105152         2.8613
  34   0.0000       0.131352         3.5743
  35   0.0000       0.143949         3.9171
  36   0.0000       0.165488         4.5031
  37   0.0000       0.171103         4.6559

MULLIKEN ATOMIC CHARGES
-----------------------
   0 C :   -0.278366
   1 H :    0.172445
   2 H :    0.168206
   3 H :    0.173569
   4 C :   -0.145162
   5 N :   -0.090690
   6 C :   -0.259309
   7 H :    0.171214
   8 H :    0.178858
   9 H :    0.181302
  10 C :   -0.117701
  11 N :   -0.153277
  12 C :   -0.287345
  13 H :    0.159637
  14 H :    0.167318
  15 H :    0.205917
  16 C :   -0.113001
  17 N :   -0.133614
Sum of atomic charges:    0.0000000

LOEWDIN ATOMIC CHARGES
----------------------
   0 C :   -0.284197
   1 H :    0.152553
   2 H :    0.151615
   3 H :    0.152918
   4 C :   -0.220093
   5 N :    0.047204
   6 C :   -0.283845
   7 H :    0.150216
   8 H :    0.155697
   9 H :    0.158787
  10 C :   -0.209396
  11 N :    0.025804
  12 C :   -0.283588
  13 H :    0.150467
  14 H :    0.150034
  15 H :    0.157085
  16 C :   -0.210194
  17 N :    0.038932

  Mayer bond orders larger than 0.100000
B(  0-C ,  1-H ) :   0.9164 B(  0-C ,  2-H ) :   0.9174 B(  0-C ,  3-H ) :   0.9164
B(  0-C ,  4-C ) :   0.9015 B(  4-C ,  5-N ) :   2.8353 B(  6-C ,  7-H ) :   0.9091
B(  6-C ,  8-H ) :   0.9121 B(  6-C ,  9-H ) :   0.9115 B(  6-C , 10-C ) :   0.9121
B( 10-C , 11-N ) :   2.7737 B( 12-C , 13-H ) :   0.9167 B( 12-C , 14-H ) :   0.9165
B( 12-C , 15-H ) :   0.9019 B( 12-C , 16-C ) :   0.8999 B( 16-C , 17-N ) :   2.7873

MP2 TOTAL ENERGY:     -397.458883126 Eh
FINAL SINGLE POINT ENERGY      -397.458883126120

DIPOLE MOMENT
-------------
                                X             Y             Z
Electronic contribution:     -0.04076      -0.23257      -3.19197
Nuclear contribution   :      0.06799       0.34156       4.65584
                        -----------------------------------------
Total Dipole Moment    :      0.02723       0.10899       1.46388
                        -----------------------------------------
Magnitude (a.u.)       :      1.46818
Magnitude (Debye)      :      3.73182

Rotational constants in cm-1:     0.046402     0.013158     0.012288
Rotational constants in MHz :  1391.107117   394.456975   368.383470

                             ****ORCA TERMINATED NORMALLY****
TOTAL RUN TIME: 0 days 0 hours 3 minutes 0 seconds 432 msec
