                         Program Version 4.2.0 -  RELEASE  -
|  1> # 12h2o.su.etal.mol0,3,5,6,7,8,9,11
|  2> ! MP2 def2-TZVP EnGrad TightSCF
|  3>
|  4> %pal
|  5>     nprocs 6
|  6> end
|  7>
|  8> %maxcore 8000
|  9>
| 10> %scf
| 11>     ConvForced true
| 12> end
| 13>
| 14> *xyz 0 1
| 15> O   1.794470000   0.923410000   2.768350000
| 16> H   2.338250000   1.359750000   3.430940000
| 17> H   0.879480000   1.303000000   2.865760000
| 18> O  -1.752130000  -0.741530000  -2.896280000
| 19> H  -2.036450000  -0.920500000  -1.984040000
| 20> H  -0.921210000  -1.242140000  -2.984230000
| 21> O   0.885520000  -1.737840000   0.052730000
| 22> H   1.284090000  -0.839590000   0.017130000
| 23> H   1.032320000  -2.090180000  -0.841890000
| 24> O   1.737840000   0.885520000  -0.052730000
| 25> H   2.090180000   1.032320000   0.841890000
| 26> H   0.839590000   1.284090000  -0.017130000
| 27> O  -1.737840000  -0.885520000  -0.052730000
| 28> H  -2.090180000  -1.032320000   0.841890000
| 29> H  -0.839590000  -1.284090000  -0.017130000
| 30> O   1.752130000   0.741530000  -2.896280000
| 31> H   2.036450000   0.920500000  -1.984040000
| 32> H   0.921210000   1.242140000  -2.984230000
| 33> O   0.741530000  -1.752130000   2.896280000
| 34> H   0.920500000  -2.036450000   1.984040000
| 35> H   1.242140000  -0.921210000   2.984230000
| 36> O  -0.741530000   1.752130000   2.896280000
| 37> H  -0.920500000   2.036450000   1.984040000
| 38> H  -1.242140000   0.921210000   2.984230000
| 39> *
| 40>
| 41>                          ****END OF INPUT****

CARTESIAN COORDINATES (ANGSTROEM)
---------------------------------
  O      1.794470    0.923410    2.768350
  H      2.338250    1.359750    3.430940
  H      0.879480    1.303000    2.865760
  O     -1.752130   -0.741530   -2.896280
  H     -2.036450   -0.920500   -1.984040
  H     -0.921210   -1.242140   -2.984230
  O      0.885520   -1.737840    0.052730
  H      1.284090   -0.839590    0.017130
  H      1.032320   -2.090180   -0.841890
  O      1.737840    0.885520   -0.052730
  H      2.090180    1.032320    0.841890
  H      0.839590    1.284090   -0.017130
  O     -1.737840   -0.885520   -0.052730
  H     -2.090180   -1.032320    0.841890
  H     -0.839590   -1.284090   -0.017130
  O      1.752130    0.741530   -2.896280
  H      2.036450    0.920500   -1.984040
  H      0.921210    1.242140   -2.984230
  O      0.741530   -1.752130    2.896280
  H      0.920500   -2.036450    1.984040
  H      1.242140   -0.921210    2.984230
  O     -0.741530    1.752130    2.896280
  H     -0.920500    2.036450    1.984040
  H     -1.242140    0.921210    2.984230

 Total Charge           Charge          ....    0
 Multiplicity           Mult            ....    1
 Number of Electrons    NEL             ....   80
 Basis Dimension        Dim             ....  344

ORBITAL ENERGIES
----------------

  NO   OCC          E(Eh)            E(eV)
   0   2.0000     -20.629510      -561.3575
   1   2.0000     -20.612226      -560.8872
   2   2.0000     -20.593732      -560.3839
   3   2.0000     -20.590499      -560.2960
   4   2.0000     -20.568230      -559.6900
   5   2.0000     -20.546612      -559.1017
   6   2.0000     -20.534296      -558.7666
   7   2.0000     -20.528867      -558.6189
   8   2.0000      -1.416222       -38.5374
   9   2.0000      -1.401749       -38.1435
  10   2.0000      -1.379082       -37.5267
  11   2.0000      -1.375989       -37.4426
  12   2.0000      -1.350424       -36.7469
  13   2.0000      -1.328524       -36.1510
  14   2.0000      -1.315689       -35.8017
  15   2.0000      -1.313897       -35.7530
  16   2.0000      -0.771611       -20.9966
  17   2.0000      -0.763634       -20.7795
  18   2.0000      -0.758458       -20.6387
  19   2.0000      -0.745909       -20.2972
  20   2.0000      -0.724360       -19.7108
  21   2.0000      -0.700829       -19.0705
  22   2.0000      -0.693551       -18.8725
  23   2.0000      -0.684865       -18.6361
  24   2.0000      -0.663878       -18.0650
  25   2.0000      -0.641814       -17.4646
  26   2.0000      -0.625859       -17.0305
  27   2.0000      -0.616267       -16.7695
  28   2.0000      -0.600944       -16.3525
  29   2.0000      -0.571015       -15.5381
  30   2.0000      -0.566117       -15.4048
  31   2.0000      -0.555881       -15.1263
  32   2.0000      -0.551066       -14.9953
  33   2.0000      -0.548473       -14.9247
  34   2.0000      -0.535254       -14.5650
  35   2.0000      -0.528845       -14.3906
  36   2.0000      -0.515872       -14.0376
  37   2.0000      -0.493713       -13.4346
  38   2.0000      -0.479900       -13.0587
  39   2.0000      -0.478598       -13.0233
  40   0.0000       0.063746         1.7346
  41   0.0000       0.115088         3.1317
  42   0.0000       0.122272         3.3272
  43   0.0000       0.128533         3.4976
  44   0.0000       0.164877         4.4865

MULLIKEN ATOMIC CHARGES
-----------------------
   0 O :   -0.756295
   1 H :    0.359864
   2 H :    0.383460
   3 O :   -0.698324
   4 H :    0.372554
   5 H :    0.319628
   6 O :   -0.735282
   7 H :    0.377641
   8 H :    0.361367
   9 O :   -0.724083
  10 H :    0.395867
  11 H :    0.342919
  12 O :   -0.734489
  13 H :    0.338396
  14 H :    0.358005
  15 O :   -0.700901
  16 H :    0.367506
  17 H :    0.334133
  18 O :   -0.729933
  19 H :    0.369809
  20 H :    0.348202
  21 O :   -0.680253
  22 H :    0.357026
  23 H :    0.373182
Sum of atomic charges:   -0.0000000

LOEWDIN ATOMIC CHARGES
----------------------
   0 O :   -0.313234
   1 H :    0.163929
   2 H :    0.145948
   3 O :   -0.339953
   4 H :    0.152933
   5 H :    0.155308
   6 O :   -0.291642
   7 H :    0.147495
   8 H :    0.170946
   9 O :   -0.279665
  10 H :    0.158524
  11 H :    0.170320
  12 O :   -0.342381
  13 H :    0.160731
  14 H :    0.141970
  15 O :   -0.338509
  16 H :    0.148785
  17 H :    0.162511
  18 O :   -0.353552
  19 H :    0.149061
  20 H :    0.140463
  21 O :   -0.263159
  22 H :    0.172130
  23 H :    0.181042

  Mayer bond orders larger than 0.100000
B(  0-O ,  1-H ) :   0.8353 B(  0-O ,  2-H ) :   0.7476 B(  3-O ,  4-H ) :   0.8173
B(  3-O ,  5-H ) :   0.8595 B(  6-O ,  7-H ) :   0.7629 B(  6-O ,  8-H ) :   0.8314
B(  9-O , 10-H ) :   0.7805 B(  9-O , 11-H ) :   0.8348 B( 12-O , 13-H ) :   0.8478
B( 12-O , 14-H ) :   0.7720 B( 15-O , 16-H ) :   0.8248 B( 15-O , 17-H ) :   0.8505
B( 18-O , 19-H ) :   0.8242 B( 18-O , 20-H ) :   0.8259 B( 21-O , 22-H ) :   0.8366
B( 21-O , 23-H ) :   0.8220

MP2 TOTAL ENERGY:     -610.575898035 Eh
FINAL SINGLE POINT ENERGY      -610.575898035494

DIPOLE MOMENT
-------------
                                X             Y             Z
Electronic contribution:      0.09931       0.20574       0.21485
Nuclear contribution   :      0.14496       1.13354       1.40687
                        -----------------------------------------
Total Dipole Moment    :      0.24427       1.33928       1.62172
                        -----------------------------------------
Magnitude (a.u.)       :      2.11739
Magnitude (Debye)      :      5.38197

Rotational constants in cm-1:     0.033409     0.018166     0.016065
Rotational constants in MHz :  1001.566792   544.606950   481.623351

                             ****ORCA TERMINATED NORMALLY****
TOTAL RUN TIME: 0 days 0 hours 3 minutes 9 seconds 928 msec
