                         Program Version 4.2.0 -  RELEASE  -
|  1> # 12h2o.su.etal.mol1,2,5,7,11
|  2> ! MP2 def2-TZVP EnGrad TightSCF
|  3>
|  4> %pal
|  5>     nprocs 6
|  6> end
|  7>
|  8> %maxcore 8000
|  9>
| 10> %scf
| 11>     ConvForced true
| 12> end
| 13>
| 14> *xyz 0 1
| 15> O  -1.794470000  -0.923410000   2.768350000
| 16> H  -2.338250000  -1.359750000   3.430940000
| 17> H  -0.879480000  -1.303000000   2.865760000
| 18> O   0.923410000  -1.794470000  -2.768350000
| 19> H   1.359750000  -2.338250000  -3.430940000
| 20> H   1.303000000  -0.879480000  -2.865760000
| 21> O   0.885520000  -1.737840000   0.052730000
| 22> H   1.284090000  -0.839590000   0.017130000
| 23> H   1.032320000  -2.090180000  -0.841890000
| 24> O  -1.737840000  -0.885520000  -0.052730000
| 25> H  -2.090180000  -1.032320000   0.841890000
| 26> H  -0.839590000  -1.284090000  -0.017130000
| 27> O  -0.741530000   1.752130000   2.896280000
| 28> H  -0.920500000   2.036450000   1.984040000
| 29> H  -1.242140000   0.921210000   2.984230000
| 30> *
| 31>
| 32>                          ****END OF INPUT****

CARTESIAN COORDINATES (ANGSTROEM)
---------------------------------
  O     -1.794470   -0.923410    2.768350
  H     -2.338250   -1.359750    3.430940
  H     -0.879480   -1.303000    2.865760
  O      0.923410   -1.794470   -2.768350
  H      1.359750   -2.338250   -3.430940
  H      1.303000   -0.879480   -2.865760
  O      0.885520   -1.737840    0.052730
  H      1.284090   -0.839590    0.017130
  H      1.032320   -2.090180   -0.841890
  O     -1.737840   -0.885520   -0.052730
  H     -2.090180   -1.032320    0.841890
  H     -0.839590   -1.284090   -0.017130
  O     -0.741530    1.752130    2.896280
  H     -0.920500    2.036450    1.984040
  H     -1.242140    0.921210    2.984230

 Total Charge           Charge          ....    0
 Multiplicity           Mult            ....    1
 Number of Electrons    NEL             ....   50
 Basis Dimension        Dim             ....  215

ORBITAL ENERGIES
----------------

  NO   OCC          E(Eh)            E(eV)
   0   2.0000     -20.597882      -560.4969
   1   2.0000     -20.597115      -560.4760
   2   2.0000     -20.567462      -559.6691
   3   2.0000     -20.527371      -558.5782
   4   2.0000     -20.495750      -557.7177
   5   2.0000      -1.378086       -37.4996
   6   2.0000      -1.375544       -37.4304
   7   2.0000      -1.350243       -36.7420
   8   2.0000      -1.309807       -35.6417
   9   2.0000      -1.280220       -34.8366
  10   2.0000      -0.743712       -20.2374
  11   2.0000      -0.741902       -20.1882
  12   2.0000      -0.714408       -19.4400
  13   2.0000      -0.680507       -18.5175
  14   2.0000      -0.665760       -18.1162
  15   2.0000      -0.620050       -16.8724
  16   2.0000      -0.614130       -16.7113
  17   2.0000      -0.587764       -15.9939
  18   2.0000      -0.564473       -15.3601
  19   2.0000      -0.540520       -14.7083
  20   2.0000      -0.535122       -14.5614
  21   2.0000      -0.520342       -14.1592
  22   2.0000      -0.492732       -13.4079
  23   2.0000      -0.475202       -12.9309
  24   2.0000      -0.446533       -12.1508
  25   0.0000       0.095017         2.5856
  26   0.0000       0.113730         3.0947
  27   0.0000       0.150421         4.0932
  28   0.0000       0.176942         4.8148
  29   0.0000       0.187226         5.0947

MULLIKEN ATOMIC CHARGES
-----------------------
   0 O :   -0.710664
   1 H :    0.358223
   2 H :    0.373049
   3 O :   -0.688712
   4 H :    0.353460
   5 H :    0.353020
   6 O :   -0.700658
   7 H :    0.339016
   8 H :    0.380408
   9 O :   -0.733901
  10 H :    0.350734
  11 H :    0.344617
  12 O :   -0.709759
  13 H :    0.334575
  14 H :    0.356593
Sum of atomic charges:   -0.0000000

LOEWDIN ATOMIC CHARGES
----------------------
   0 O :   -0.286488
   1 H :    0.164990
   2 H :    0.192256
   3 O :   -0.306424
   4 H :    0.164248
   5 H :    0.185445
   6 O :   -0.301943
   7 H :    0.170571
   8 H :    0.154133
   9 O :   -0.370738
  10 H :    0.139618
  11 H :    0.136000
  12 O :   -0.349705
  13 H :    0.162083
  14 H :    0.145956

  Mayer bond orders larger than 0.100000
B(  0-O ,  1-H ) :   0.8350 B(  0-O ,  2-H ) :   0.8188 B(  3-O ,  4-H ) :   0.8411
B(  3-O ,  5-H ) :   0.8355 B(  6-O ,  7-H ) :   0.8454 B(  6-O ,  8-H ) :   0.8018
B(  9-O , 10-H ) :   0.8373 B(  9-O , 11-H ) :   0.8072 B( 12-O , 13-H ) :   0.8537
B( 12-O , 14-H ) :   0.8235

MP2 TOTAL ENERGY:     -381.591662360 Eh
FINAL SINGLE POINT ENERGY      -381.591662360242

DIPOLE MOMENT
-------------
                                X             Y             Z
Electronic contribution:     -0.06010      -0.17022      -0.02297
Nuclear contribution   :      1.33081      -0.82469      -0.68611
                        -----------------------------------------
Total Dipole Moment    :      1.27071      -0.99490      -0.70908
                        -----------------------------------------
Magnitude (a.u.)       :      1.76276
Magnitude (Debye)      :      4.48059

Rotational constants in cm-1:     0.122076     0.027986     0.026395
Rotational constants in MHz :  3659.756349   838.992723   791.289983

                             ****ORCA TERMINATED NORMALLY****
TOTAL RUN TIME: 0 days 0 hours 1 minutes 19 seconds 150 msec
