                         Program Version 4.2.0 -  RELEASE  -
|  1> # 12h2o.su.etal.mol2,3,4,5,7,8,10
|  2> ! MP2 def2-TZVP EnGrad TightSCF
|  3>
|  4> %pal
|  5>     nprocs 6
|  6> end
|  7>
|  8> %maxcore 8000
|  9>
| 10> %scf
| 11>     ConvForced true
| 12> end
| 13>
| 14> *xyz 0 1
| 15> O   0.923410000  -1.794470000  -2.768350000
| 16> H   1.359750000  -2.338250000  -3.430940000
| 17> H   1.303000000  -0.879480000  -2.865760000
| 18> O  -1.752130000  -0.741530000  -2.896280000
| 19> H  -2.036450000  -0.920500000  -1.984040000
| 20> H  -0.921210000  -1.242140000  -2.984230000
| 21> O  -0.885520000   1.737840000   0.052730000
| 22> H  -1.032320000   2.090180000  -0.841890000
| 23> H  -1.284090000   0.839590000   0.017130000
| 24> O   0.885520000  -1.737840000   0.052730000
| 25> H   1.284090000  -0.839590000   0.017130000
| 26> H   1.032320000  -2.090180000  -0.841890000
| 27> O  -1.737840000  -0.885520000  -0.052730000
| 28> H  -2.090180000  -1.032320000   0.841890000
| 29> H  -0.839590000  -1.284090000  -0.017130000
| 30> O   1.752130000   0.741530000  -2.896280000
| 31> H   2.036450000   0.920500000  -1.984040000
| 32> H   0.921210000   1.242140000  -2.984230000
| 33> O  -0.923410000   1.794470000  -2.768350000
| 34> H  -1.359750000   2.338250000  -3.430940000
| 35> H  -1.303000000   0.879480000  -2.865760000
| 36> *
| 37>
| 38>                          ****END OF INPUT****

CARTESIAN COORDINATES (ANGSTROEM)
---------------------------------
  O      0.923410   -1.794470   -2.768350
  H      1.359750   -2.338250   -3.430940
  H      1.303000   -0.879480   -2.865760
  O     -1.752130   -0.741530   -2.896280
  H     -2.036450   -0.920500   -1.984040
  H     -0.921210   -1.242140   -2.984230
  O     -0.885520    1.737840    0.052730
  H     -1.032320    2.090180   -0.841890
  H     -1.284090    0.839590    0.017130
  O      0.885520   -1.737840    0.052730
  H      1.284090   -0.839590    0.017130
  H      1.032320   -2.090180   -0.841890
  O     -1.737840   -0.885520   -0.052730
  H     -2.090180   -1.032320    0.841890
  H     -0.839590   -1.284090   -0.017130
  O      1.752130    0.741530   -2.896280
  H      2.036450    0.920500   -1.984040
  H      0.921210    1.242140   -2.984230
  O     -0.923410    1.794470   -2.768350
  H     -1.359750    2.338250   -3.430940
  H     -1.303000    0.879480   -2.865760

 Total Charge           Charge          ....    0
 Multiplicity           Mult            ....    1
 Number of Electrons    NEL             ....   70
 Basis Dimension        Dim             ....  301

ORBITAL ENERGIES
----------------

  NO   OCC          E(Eh)            E(eV)
   0   2.0000     -20.586825      -560.1960
   1   2.0000     -20.582873      -560.0885
   2   2.0000     -20.580654      -560.0281
   3   2.0000     -20.575474      -559.8871
   4   2.0000     -20.564626      -559.5919
   5   2.0000     -20.558674      -559.4300
   6   2.0000     -20.505333      -557.9785
   7   2.0000      -1.384766       -37.6814
   8   2.0000      -1.372759       -37.3547
   9   2.0000      -1.363845       -37.1121
  10   2.0000      -1.359844       -37.0032
  11   2.0000      -1.353783       -36.8383
  12   2.0000      -1.338922       -36.4339
  13   2.0000      -1.289578       -35.0912
  14   2.0000      -0.748876       -20.3780
  15   2.0000      -0.739902       -20.1337
  16   2.0000      -0.732274       -19.9262
  17   2.0000      -0.727037       -19.7837
  18   2.0000      -0.725574       -19.7439
  19   2.0000      -0.714727       -19.4487
  20   2.0000      -0.673511       -18.3272
  21   2.0000      -0.647536       -17.6203
  22   2.0000      -0.620964       -16.8973
  23   2.0000      -0.613809       -16.7026
  24   2.0000      -0.598909       -16.2971
  25   2.0000      -0.591526       -16.0962
  26   2.0000      -0.573172       -15.5968
  27   2.0000      -0.547986       -14.9115
  28   2.0000      -0.530102       -14.4248
  29   2.0000      -0.529471       -14.4077
  30   2.0000      -0.521648       -14.1948
  31   2.0000      -0.514452       -13.9990
  32   2.0000      -0.504178       -13.7194
  33   2.0000      -0.500017       -13.6062
  34   2.0000      -0.456363       -12.4183
  35   0.0000       0.096974         2.6388
  36   0.0000       0.140679         3.8281
  37   0.0000       0.143859         3.9146
  38   0.0000       0.146702         3.9920
  39   0.0000       0.205219         5.5843

MULLIKEN ATOMIC CHARGES
-----------------------
   0 O :   -0.761419
   1 H :    0.357056
   2 H :    0.382094
   3 O :   -0.722696
   4 H :    0.388401
   5 H :    0.368244
   6 O :   -0.740025
   7 H :    0.358936
   8 H :    0.340051
   9 O :   -0.697548
  10 H :    0.343556
  11 H :    0.382520
  12 O :   -0.739537
  13 H :    0.360528
  14 H :    0.373046
  15 O :   -0.706664
  16 H :    0.351989
  17 H :    0.386235
  18 O :   -0.757018
  19 H :    0.349479
  20 H :    0.382773
Sum of atomic charges:   -0.0000000

LOEWDIN ATOMIC CHARGES
----------------------
   0 O :   -0.316276
   1 H :    0.162155
   2 H :    0.145556
   3 O :   -0.285290
   4 H :    0.157549
   5 H :    0.149000
   6 O :   -0.373272
   7 H :    0.141948
   8 H :    0.133088
   9 O :   -0.294528
  10 H :    0.170795
  11 H :    0.153354
  12 O :   -0.298945
  13 H :    0.172606
  14 H :    0.147047
  15 O :   -0.278905
  16 H :    0.168600
  17 H :    0.156943
  18 O :   -0.315867
  19 H :    0.158493
  20 H :    0.145950

  Mayer bond orders larger than 0.100000
B(  0-O ,  1-H ) :   0.8369 B(  0-O ,  2-H ) :   0.7316 B(  2-H , 15-O ) :   0.1160
B(  3-O ,  4-H ) :   0.8011 B(  3-O ,  5-H ) :   0.8014 B(  3-O , 20-H ) :   0.1210
B(  6-O ,  7-H ) :   0.8254 B(  6-O ,  8-H ) :   0.8097 B(  9-O , 10-H ) :   0.8391
B(  9-O , 11-H ) :   0.7958 B(  9-O , 14-H ) :   0.1021 B( 12-O , 13-H ) :   0.8344
B( 12-O , 14-H ) :   0.7568 B( 15-O , 16-H ) :   0.8392 B( 15-O , 17-H ) :   0.7780
B( 18-O , 19-H ) :   0.8405 B( 18-O , 20-H ) :   0.7276

MP2 TOTAL ENERGY:     -534.279706995 Eh
FINAL SINGLE POINT ENERGY      -534.279706994732

DIPOLE MOMENT
-------------
                                X             Y             Z
Electronic contribution:      0.06959      -0.23557      -0.09604
Nuclear contribution   :      0.45439      -0.45394      -0.66725
                        -----------------------------------------
Total Dipole Moment    :      0.52398      -0.68952      -0.76329
                        -----------------------------------------
Magnitude (a.u.)       :      1.15439
Magnitude (Debye)      :      2.93422

Rotational constants in cm-1:     0.038519     0.037676     0.029375
Rotational constants in MHz :  1154.768375  1129.509727   880.626340

                             ****ORCA TERMINATED NORMALLY****
TOTAL RUN TIME: 0 days 0 hours 2 minutes 47 seconds 757 msec
