                         Program Version 3.0.3 - RELEASE   -
|  1> ! wB97X-D3 MA-Def2-TZVP def2-TZVP/J RIJCOSX TightSCF Grid4
|  2>
|  3> %pal nprocs 1 end
|  4>
|  5> %scf
|  6>         maxiter 400
|  7> end
|  8>
|  9> %cosmo
| 10>         SMD true
| 11>         solvent "WATER"
| 12> end
| 13>
| 14> * xyz  0  1
| 15> O  0.528254	2.158112	0.163610
| 16> H  -0.377110	1.968469	-0.302058
| 17> H  0.670695	3.123488	0.107304
| 18> O  -1.863140	-0.345830	1.158438
| 19> H  -1.054454	-0.029107	1.723257
| 20> H  -2.577775	-0.555056	1.791531
| 21> O  -1.672198	1.360857	-0.926409
| 22> H  -1.927422	0.796940	-0.140682
| 23> H  -1.238760	0.677215	-1.538834
| 24> O  1.740492	-1.356448	0.921144
| 25> H  0.943659	-1.831704	0.547603
| 26> H  1.989409	-0.763043	0.155778
| 27> O  -0.353042	-0.519487	-2.303934
| 28> H  -0.492561	-1.268765	-1.657696
| 29> H  0.556143	-0.199198	-2.038303
| 30> O  1.934162	0.381827	-1.147005
| 31> H  1.514639	1.180591	-0.682771
| 32> H  2.732617	0.723760	-1.594496
| 33> O  -0.591247	-2.204091	-0.187589
| 34> H  -1.192571	-1.602002	0.365344
| 35> H  -0.977890	-3.099033	-0.118942
| 36> O  0.320376	0.470497	2.268883
| 37> H  0.913698	-0.240058	1.850415
| 38> H  0.429020	1.232838	1.630198
| 39> **                         ****END OF INPUT****

CARTESIAN COORDINATES (ANGSTROEM)
---------------------------------
  O      0.528254    2.158112    0.163610
  H     -0.377110    1.968469   -0.302058
  H      0.670695    3.123488    0.107304
  O     -1.863140   -0.345830    1.158438
  H     -1.054454   -0.029107    1.723257
  H     -2.577775   -0.555056    1.791531
  O     -1.672198    1.360857   -0.926409
  H     -1.927422    0.796940   -0.140682
  H     -1.238760    0.677215   -1.538834
  O      1.740492   -1.356448    0.921144
  H      0.943659   -1.831704    0.547603
  H      1.989409   -0.763043    0.155778
  O     -0.353042   -0.519487   -2.303934
  H     -0.492561   -1.268765   -1.657696
  H      0.556143   -0.199198   -2.038303
  O      1.934162    0.381827   -1.147005
  H      1.514639    1.180591   -0.682771
  H      2.732617    0.723760   -1.594496
  O     -0.591247   -2.204091   -0.187589
  H     -1.192571   -1.602002    0.365344
  H     -0.977890   -3.099033   -0.118942
  O      0.320376    0.470497    2.268883
  H      0.913698   -0.240058    1.850415
  H      0.429020    1.232838    1.630198

 Total Charge           Charge          ....    0
 Multiplicity           Mult            ....    1
 Number of Electrons    NEL             ....   80
 Basis Dimension        Dim             ....  376

ORBITAL ENERGIES
----------------

  NO   OCC          E(Eh)            E(eV)
   0   2.0000     -19.241939      -523.5998
   1   2.0000     -19.241909      -523.5990
   2   2.0000     -19.241616      -523.5910
   3   2.0000     -19.241496      -523.5877
   4   2.0000     -19.227804      -523.2151
   5   2.0000     -19.227663      -523.2113
   6   2.0000     -19.226194      -523.1713
   7   2.0000     -19.225813      -523.1610
   8   2.0000      -1.147929       -31.2367
   9   2.0000      -1.134820       -30.8800
  10   2.0000      -1.127313       -30.6757
  11   2.0000      -1.122307       -30.5395
  12   2.0000      -1.114062       -30.3152
  13   2.0000      -1.109160       -30.1818
  14   2.0000      -1.101259       -29.9668
  15   2.0000      -1.089075       -29.6352
  16   2.0000      -0.650370       -17.6975
  17   2.0000      -0.649784       -17.6815
  18   2.0000      -0.632660       -17.2155
  19   2.0000      -0.627767       -17.0824
  20   2.0000      -0.623752       -16.9732
  21   2.0000      -0.615903       -16.7596
  22   2.0000      -0.614083       -16.7100
  23   2.0000      -0.613883       -16.7046
  24   2.0000      -0.565669       -15.3926
  25   2.0000      -0.536846       -14.6083
  26   2.0000      -0.524142       -14.2626
  27   2.0000      -0.513318       -13.9681
  28   2.0000      -0.507907       -13.8208
  29   2.0000      -0.489344       -13.3157
  30   2.0000      -0.483624       -13.1601
  31   2.0000      -0.461533       -12.5590
  32   2.0000      -0.428643       -11.6640
  33   2.0000      -0.427275       -11.6267
  34   2.0000      -0.423667       -11.5286
  35   2.0000      -0.420099       -11.4315
  36   2.0000      -0.416001       -11.3200
  37   2.0000      -0.412527       -11.2254
  38   2.0000      -0.409699       -11.1485
  39   2.0000      -0.408796       -11.1239
  40   0.0000       0.066948         1.8217
  41   0.0000       0.091190         2.4814
  42   0.0000       0.098750         2.6871
  43   0.0000       0.107232         2.9179
  44   0.0000       0.114015         3.1025

MULLIKEN ATOMIC CHARGES
-----------------------
   0 O :   -0.876940
   1 H :    0.438656
   2 H :    0.420127
   3 O :   -0.875627
   4 H :    0.438142
   5 H :    0.420359
   6 O :   -0.850290
   7 H :    0.429003
   8 H :    0.442006
   9 O :   -0.833954
  10 H :    0.417122
  11 H :    0.419184
  12 O :   -0.835678
  13 H :    0.420083
  14 H :    0.416157
  15 O :   -0.842122
  16 H :    0.421029
  17 H :    0.419068
  18 O :   -0.843174
  19 H :    0.419301
  20 H :    0.419067
  21 O :   -0.851391
  22 H :    0.440441
  23 H :    0.429431
Sum of atomic charges:    0.0000000

LOEWDIN ATOMIC CHARGES
----------------------
   0 O :   -0.389112
   1 H :    0.199394
   2 H :    0.220348
   3 O :   -0.389272
   4 H :    0.199687
   5 H :    0.220405
   6 O :   -0.422801
   7 H :    0.199106
   8 H :    0.198864
   9 O :   -0.435500
  10 H :    0.198508
  11 H :    0.198373
  12 O :   -0.434598
  13 H :    0.199311
  14 H :    0.198368
  15 O :   -0.387463
  16 H :    0.200091
  17 H :    0.220518
  18 O :   -0.389516
  19 H :    0.200131
  20 H :    0.220476
  21 O :   -0.423637
  22 H :    0.198762
  23 H :    0.199558

  Mayer bond orders larger than 0.1
B(  0-O ,  1-H ) :   0.7290 B(  0-O ,  2-H ) :   0.8290 B(  1-H ,  6-O ) :   0.1213
B(  3-O ,  4-H ) :   0.7291 B(  3-O ,  5-H ) :   0.8289 B(  4-H , 21-O ) :   0.1225
B(  6-O ,  7-H ) :   0.8090 B(  6-O ,  8-H ) :   0.7766 B(  9-O , 10-H ) :   0.8087
B(  9-O , 11-H ) :   0.8075 B( 12-O , 13-H ) :   0.8087 B( 12-O , 14-H ) :   0.8088
B( 15-O , 16-H ) :   0.7700 B( 15-O , 17-H ) :   0.8308 B( 18-O , 19-H ) :   0.7701
B( 18-O , 20-H ) :   0.8311 B( 21-O , 22-H ) :   0.7752 B( 21-O , 23-H ) :   0.8084

Dispersion correction           -0.012550421
FINAL SINGLE POINT ENERGY      -611.670762937468

DIPOLE MOMENT
-------------
                                X             Y             Z
Electronic contribution:     -0.04070       0.06031       0.03738
Nuclear contribution   :     -0.14648       0.18683       0.16928
                        -----------------------------------------
Total Dipole Moment    :     -0.18718       0.24714       0.20666
                        -----------------------------------------
Magnitude (a.u.)       :      0.37259
Magnitude (Debye)      :      0.94704

                             ****ORCA TERMINATED NORMALLY****
TOTAL RUN TIME: 0 days 0 hours 6 minutes 41 seconds 990 msec
