                         Program Version 3.0.3 - RELEASE   -
|  1> ! B3LYP Def2-TZVP def2-TZVP/J RIJCOSX TightSCF Grid4 D3BJ
|  2>
|  3> %pal nprocs 12 end
|  4>
|  5> %scf
|  6>         maxiter 400
|  7> end
|  8>
|  9> * xyz  0  1
| 10> O  0.552584	2.276967	0.147284
| 11> H  -0.336025	1.999273	-0.289116
| 12> H  0.582073	3.242293	0.134809
| 13> O  -1.947786	-0.386186	1.217680
| 14> H  -1.093917	-0.062130	1.696353
| 15> H  -2.640068	-0.438383	1.889775
| 16> O  -1.595906	1.351226	-0.890194
| 17> H  -1.944375	0.793575	-0.162278
| 18> H  -1.232270	0.687413	-1.537749
| 19> O  1.766949	-1.372897	0.878167
| 20> H  1.014098	-1.886905	0.521506
| 21> H  2.034766	-0.802654	0.128988
| 22> O  -0.312690	-0.571443	-2.286782
| 23> H  -0.455420	-1.311474	-1.661457
| 24> H  0.590744	-0.261974	-2.074844
| 25> O  2.011541	0.484894	-1.173570
| 26> H  1.585976	1.258263	-0.714895
| 27> H  2.795029	0.826613	-1.623387
| 28> O  -0.676789	-2.274959	-0.124525
| 29> H  -1.272053	-1.676942	0.404205
| 30> H  -1.087606	-3.149479	-0.108015
| 31> O  0.260409	0.407036	2.184500
| 32> H  0.906230	-0.273482	1.845847
| 33> H  0.449502	1.202129	1.642482
| 34> **                         ****END OF INPUT****

CARTESIAN COORDINATES (ANGSTROEM)
---------------------------------
  O      0.552584    2.276967    0.147284
  H     -0.336025    1.999273   -0.289116
  H      0.582073    3.242293    0.134809
  O     -1.947786   -0.386186    1.217680
  H     -1.093917   -0.062130    1.696353
  H     -2.640068   -0.438383    1.889775
  O     -1.595906    1.351226   -0.890194
  H     -1.944375    0.793575   -0.162278
  H     -1.232270    0.687413   -1.537749
  O      1.766949   -1.372897    0.878167
  H      1.014098   -1.886905    0.521506
  H      2.034766   -0.802654    0.128988
  O     -0.312690   -0.571443   -2.286782
  H     -0.455420   -1.311474   -1.661457
  H      0.590744   -0.261974   -2.074844
  O      2.011541    0.484894   -1.173570
  H      1.585976    1.258263   -0.714895
  H      2.795029    0.826613   -1.623387
  O     -0.676789   -2.274959   -0.124525
  H     -1.272053   -1.676942    0.404205
  H     -1.087606   -3.149479   -0.108015
  O      0.260409    0.407036    2.184500
  H      0.906230   -0.273482    1.845847
  H      0.449502    1.202129    1.642482

 Total Charge           Charge          ....    0
 Multiplicity           Mult            ....    1
 Number of Electrons    NEL             ....   80
 Basis Dimension        Dim             ....  344

ORBITAL ENERGIES
----------------

  NO   OCC          E(Eh)            E(eV)
   0   2.0000     -19.147228      -521.0226
   1   2.0000     -19.145710      -520.9812
   2   2.0000     -19.140817      -520.8481
   3   2.0000     -19.139886      -520.8228
   4   2.0000     -19.113740      -520.1113
   5   2.0000     -19.111802      -520.0586
   6   2.0000     -19.108084      -519.9574
   7   2.0000     -19.105301      -519.8817
   8   2.0000      -1.040151       -28.3040
   9   2.0000      -1.034405       -28.1476
  10   2.0000      -1.023002       -27.8373
  11   2.0000      -1.016391       -27.6574
  12   2.0000      -1.002709       -27.2851
  13   2.0000      -0.996569       -27.1180
  14   2.0000      -0.985006       -26.8034
  15   2.0000      -0.979421       -26.6514
  16   2.0000      -0.566283       -15.4094
  17   2.0000      -0.564998       -15.3744
  18   2.0000      -0.542218       -14.7545
  19   2.0000      -0.540146       -14.6981
  20   2.0000      -0.521553       -14.1922
  21   2.0000      -0.517909       -14.0930
  22   2.0000      -0.513584       -13.9753
  23   2.0000      -0.511755       -13.9256
  24   2.0000      -0.460577       -12.5329
  25   2.0000      -0.432232       -11.7616
  26   2.0000      -0.428737       -11.6665
  27   2.0000      -0.402765       -10.9598
  28   2.0000      -0.400921       -10.9096
  29   2.0000      -0.386822       -10.5260
  30   2.0000      -0.382426       -10.4063
  31   2.0000      -0.355810        -9.6821
  32   2.0000      -0.340018        -9.2524
  33   2.0000      -0.338429        -9.2091
  34   2.0000      -0.334234        -9.0950
  35   2.0000      -0.331175        -9.0117
  36   2.0000      -0.314176        -8.5492
  37   2.0000      -0.312200        -8.4954
  38   2.0000      -0.298831        -8.1316
  39   2.0000      -0.296430        -8.0663
  40   0.0000      -0.002834        -0.0771
  41   0.0000       0.017281         0.4702
  42   0.0000       0.036418         0.9910
  43   0.0000       0.046239         1.2582
  44   0.0000       0.097342         2.6488

MULLIKEN ATOMIC CHARGES
-----------------------
   0 O :   -0.729144
   1 H :    0.371198
   2 H :    0.332181
   3 O :   -0.729299
   4 H :    0.371404
   5 H :    0.331742
   6 O :   -0.693273
   7 H :    0.351459
   8 H :    0.373078
   9 O :   -0.690303
  10 H :    0.348710
  11 H :    0.350060
  12 O :   -0.693011
  13 H :    0.348327
  14 H :    0.346160
  15 O :   -0.702557
  16 H :    0.359284
  17 H :    0.332370
  18 O :   -0.703581
  19 H :    0.359146
  20 H :    0.331298
  21 O :   -0.692341
  22 H :    0.375691
  23 H :    0.351401
Sum of atomic charges:    0.0000000

LOEWDIN ATOMIC CHARGES
----------------------
   0 O :   -0.300954
   1 H :    0.136766
   2 H :    0.155341
   3 O :   -0.298025
   4 H :    0.133271
   5 H :    0.155064
   6 O :   -0.272519
   7 H :    0.136943
   8 H :    0.143717
   9 O :   -0.289223
  10 H :    0.138293
  11 H :    0.137246
  12 O :   -0.295401
  13 H :    0.136189
  14 H :    0.135811
  15 O :   -0.282662
  16 H :    0.140955
  17 H :    0.159685
  18 O :   -0.284933
  19 H :    0.139369
  20 H :    0.159409
  21 O :   -0.265837
  22 H :    0.142282
  23 H :    0.139213

  Mayer bond orders larger than 0.1
B(  0-O ,  1-H ) :   0.7006 B(  0-O ,  2-H ) :   0.8900 B(  0-O , 16-H ) :   0.1296
B(  1-H ,  6-O ) :   0.2163 B(  3-O ,  4-H ) :   0.6946 B(  3-O ,  5-H ) :   0.8901
B(  3-O , 19-H ) :   0.1329 B(  4-H , 21-O ) :   0.2224 B(  6-O ,  7-H ) :   0.8354
B(  6-O ,  8-H ) :   0.7874 B(  8-H , 12-O ) :   0.1301 B(  9-O , 10-H ) :   0.8465
B(  9-O , 11-H ) :   0.8436 B(  9-O , 22-H ) :   0.1377 B( 12-O , 13-H ) :   0.8429
B( 12-O , 14-H ) :   0.8469 B( 15-O , 16-H ) :   0.7791 B( 15-O , 17-H ) :   0.8905
B( 18-O , 19-H ) :   0.7761 B( 18-O , 20-H ) :   0.8912 B( 21-O , 22-H ) :   0.7790
B( 21-O , 23-H ) :   0.8383

Dispersion correction           -0.025070789
FINAL SINGLE POINT ENERGY      -611.548777838133

DIPOLE MOMENT
-------------
                                X             Y             Z
Electronic contribution:      0.04366      -0.02718       0.01095
Nuclear contribution   :     -0.18307       0.26374       0.15574
                        -----------------------------------------
Total Dipole Moment    :     -0.13941       0.23656       0.16669
                        -----------------------------------------
Magnitude (a.u.)       :      0.32122
Magnitude (Debye)      :      0.81647

                             ****ORCA TERMINATED NORMALLY****
TOTAL RUN TIME: 0 days 0 hours 1 minutes 2 seconds 904 msec
