                         Program Version 4.2.0 -  RELEASE  -
|  1> # 12h2o.su.etal.mol0,3,8,10,11
|  2> ! MP2 def2-TZVP EnGrad TightSCF
|  3>
|  4> %pal
|  5>     nprocs 6
|  6> end
|  7>
|  8> %maxcore 8000
|  9>
| 10> %scf
| 11>     ConvForced true
| 12> end
| 13>
| 14> *xyz 0 1
| 15> O   1.794470000   0.923410000   2.768350000
| 16> H   2.338250000   1.359750000   3.430940000
| 17> H   0.879480000   1.303000000   2.865760000
| 18> O  -1.752130000  -0.741530000  -2.896280000
| 19> H  -2.036450000  -0.920500000  -1.984040000
| 20> H  -0.921210000  -1.242140000  -2.984230000
| 21> O   1.752130000   0.741530000  -2.896280000
| 22> H   2.036450000   0.920500000  -1.984040000
| 23> H   0.921210000   1.242140000  -2.984230000
| 24> O  -0.923410000   1.794470000  -2.768350000
| 25> H  -1.359750000   2.338250000  -3.430940000
| 26> H  -1.303000000   0.879480000  -2.865760000
| 27> O  -0.741530000   1.752130000   2.896280000
| 28> H  -0.920500000   2.036450000   1.984040000
| 29> H  -1.242140000   0.921210000   2.984230000
| 30> *
| 31>
| 32>                          ****END OF INPUT****

CARTESIAN COORDINATES (ANGSTROEM)
---------------------------------
  O      1.794470    0.923410    2.768350
  H      2.338250    1.359750    3.430940
  H      0.879480    1.303000    2.865760
  O     -1.752130   -0.741530   -2.896280
  H     -2.036450   -0.920500   -1.984040
  H     -0.921210   -1.242140   -2.984230
  O      1.752130    0.741530   -2.896280
  H      2.036450    0.920500   -1.984040
  H      0.921210    1.242140   -2.984230
  O     -0.923410    1.794470   -2.768350
  H     -1.359750    2.338250   -3.430940
  H     -1.303000    0.879480   -2.865760
  O     -0.741530    1.752130    2.896280
  H     -0.920500    2.036450    1.984040
  H     -1.242140    0.921210    2.984230

 Total Charge           Charge          ....    0
 Multiplicity           Mult            ....    1
 Number of Electrons    NEL             ....   50
 Basis Dimension        Dim             ....  215

ORBITAL ENERGIES
----------------

  NO   OCC          E(Eh)            E(eV)
   0   2.0000     -20.606541      -560.7325
   1   2.0000     -20.601894      -560.6060
   2   2.0000     -20.550896      -559.2183
   3   2.0000     -20.526658      -558.5588
   4   2.0000     -20.520175      -558.3823
   5   2.0000      -1.392266       -37.8855
   6   2.0000      -1.387180       -37.7471
   7   2.0000      -1.335468       -36.3399
   8   2.0000      -1.308511       -35.6064
   9   2.0000      -1.302601       -35.4456
  10   2.0000      -0.748942       -20.3797
  11   2.0000      -0.744623       -20.2622
  12   2.0000      -0.720592       -19.6083
  13   2.0000      -0.694070       -18.8866
  14   2.0000      -0.677880       -18.4461
  15   2.0000      -0.630858       -17.1665
  16   2.0000      -0.621556       -16.9134
  17   2.0000      -0.585704       -15.9378
  18   2.0000      -0.561497       -15.2791
  19   2.0000      -0.551513       -15.0074
  20   2.0000      -0.532750       -14.4969
  21   2.0000      -0.517711       -14.0876
  22   2.0000      -0.498514       -13.5652
  23   2.0000      -0.474610       -12.9148
  24   2.0000      -0.470512       -12.8033
  25   0.0000       0.095727         2.6049
  26   0.0000       0.113408         3.0860
  27   0.0000       0.153939         4.1889
  28   0.0000       0.168904         4.5961
  29   0.0000       0.178069         4.8455

MULLIKEN ATOMIC CHARGES
-----------------------
   0 O :   -0.732184
   1 H :    0.326750
   2 H :    0.363159
   3 O :   -0.683959
   4 H :    0.356669
   5 H :    0.372465
   6 O :   -0.717797
   7 H :    0.334524
   8 H :    0.359422
   9 O :   -0.738743
  10 H :    0.341159
  11 H :    0.376261
  12 O :   -0.676788
  13 H :    0.361759
  14 H :    0.357303
Sum of atomic charges:   -0.0000000

LOEWDIN ATOMIC CHARGES
----------------------
   0 O :   -0.372414
   1 H :    0.149219
   2 H :    0.141149
   3 O :   -0.269586
   4 H :    0.174291
   5 H :    0.181173
   6 O :   -0.353195
   7 H :    0.162077
   8 H :    0.145912
   9 O :   -0.340612
  10 H :    0.155534
  11 H :    0.144411
  12 O :   -0.270233
  13 H :    0.176350
  14 H :    0.175924

  Mayer bond orders larger than 0.100000
B(  0-O ,  1-H ) :   0.8600 B(  0-O ,  2-H ) :   0.7906 B(  3-O ,  4-H ) :   0.8383
B(  3-O ,  5-H ) :   0.8242 B(  6-O ,  7-H ) :   0.8547 B(  6-O ,  8-H ) :   0.8091
B(  9-O , 10-H ) :   0.8485 B(  9-O , 11-H ) :   0.7673 B( 12-O , 13-H ) :   0.8348
B( 12-O , 14-H ) :   0.8373

MP2 TOTAL ENERGY:     -381.592464786 Eh
FINAL SINGLE POINT ENERGY      -381.592464785601

DIPOLE MOMENT
-------------
                                X             Y             Z
Electronic contribution:     -0.32089      -0.13881      -0.12575
Nuclear contribution   :     -1.55378      -0.08480       0.68611
                        -----------------------------------------
Total Dipole Moment    :     -1.87468      -0.22361       0.56035
                        -----------------------------------------
Magnitude (a.u.)       :      1.96937
Magnitude (Debye)      :      5.00574

Rotational constants in cm-1:     0.069911     0.021170     0.018594
Rotational constants in MHz :  2095.870723   634.675573   557.430018

                             ****ORCA TERMINATED NORMALLY****
TOTAL RUN TIME: 0 days 0 hours 0 minutes 25 seconds 577 msec
