                         Program Version 4.2.0 -  RELEASE  -
|  1> # 12mecn.remya.etal.2.mol4,6,7
|  2> ! MP2 def2-TZVP EnGrad TightSCF
|  3>
|  4> %pal
|  5>     nprocs 6
|  6> end
|  7>
|  8> %maxcore 8000
|  9>
| 10> %scf
| 11>     ConvForced true
| 12> end
| 13>
| 14> *xyz 0 1
| 15> C  -1.509690000  -0.693960000  -1.610140000
| 16> H  -1.327010000  -1.692700000  -2.017370000
| 17> H  -0.742170000  -0.000650000  -1.964400000
| 18> H  -2.491920000  -0.334310000  -1.929350000
| 19> C  -1.473570000  -0.748120000  -0.167200000
| 20> N  -1.447490000  -0.793720000   0.998938000
| 21> C   5.300864000  -2.920090000   1.401103000
| 22> H   5.986071000  -2.139770000   1.737487000
| 23> H   5.636642000  -3.888750000   1.778233000
| 24> H   4.307359000  -2.697240000   1.799307000
| 25> C   5.234791000  -2.933140000  -0.043290000
| 26> N   5.170868000  -2.941760000  -1.207750000
| 27> C   1.502241000   0.651296000   1.710523000
| 28> H   1.309219000   1.637164000   2.143202000
| 29> H   2.493408000   0.297996000   2.009069000
| 30> H   0.746597000  -0.059850000   2.055508000
| 31> C   1.447974000   0.738517000   0.269805000
| 32> N   1.405612000   0.808047000  -0.894380000
| 33> *
| 34>
| 35>                          ****END OF INPUT****

CARTESIAN COORDINATES (ANGSTROEM)
---------------------------------
  C     -1.509690   -0.693960   -1.610140
  H     -1.327010   -1.692700   -2.017370
  H     -0.742170   -0.000650   -1.964400
  H     -2.491920   -0.334310   -1.929350
  C     -1.473570   -0.748120   -0.167200
  N     -1.447490   -0.793720    0.998938
  C      5.300864   -2.920090    1.401103
  H      5.986071   -2.139770    1.737487
  H      5.636642   -3.888750    1.778233
  H      4.307359   -2.697240    1.799307
  C      5.234791   -2.933140   -0.043290
  N      5.170868   -2.941760   -1.207750
  C      1.502241    0.651296    1.710523
  H      1.309219    1.637164    2.143202
  H      2.493408    0.297996    2.009069
  H      0.746597   -0.059850    2.055508
  C      1.447974    0.738517    0.269805
  N      1.405612    0.808047   -0.894380

 Total Charge           Charge          ....    0
 Multiplicity           Mult            ....    1
 Number of Electrons    NEL             ....   66
 Basis Dimension        Dim             ....  333

ORBITAL ENERGIES
----------------

  NO   OCC          E(Eh)            E(eV)
   0   2.0000     -15.573543      -423.7776
   1   2.0000     -15.571415      -423.7197
   2   2.0000     -15.570771      -423.7022
   3   2.0000     -11.286970      -307.1341
   4   2.0000     -11.282985      -307.0256
   5   2.0000     -11.282478      -307.0118
   6   2.0000     -11.280016      -306.9449
   7   2.0000     -11.275785      -306.8297
   8   2.0000     -11.270878      -306.6962
   9   2.0000      -1.217660       -33.1342
  10   2.0000      -1.214826       -33.0571
  11   2.0000      -1.213477       -33.0204
  12   2.0000      -1.045544       -28.4507
  13   2.0000      -1.038719       -28.2650
  14   2.0000      -1.034132       -28.1402
  15   2.0000      -0.702753       -19.1229
  16   2.0000      -0.695132       -18.9155
  17   2.0000      -0.689975       -18.7752
  18   2.0000      -0.634925       -17.2772
  19   2.0000      -0.632249       -17.2044
  20   2.0000      -0.631274       -17.1778
  21   2.0000      -0.627229       -17.0678
  22   2.0000      -0.622443       -16.9375
  23   2.0000      -0.615447       -16.7472
  24   2.0000      -0.558765       -15.2048
  25   2.0000      -0.555896       -15.1267
  26   2.0000      -0.555700       -15.1214
  27   2.0000      -0.460315       -12.5258
  28   2.0000      -0.459677       -12.5085
  29   2.0000      -0.458193       -12.4681
  30   2.0000      -0.457745       -12.4559
  31   2.0000      -0.456468       -12.4211
  32   2.0000      -0.454262       -12.3611
  33   0.0000       0.097987         2.6664
  34   0.0000       0.133596         3.6353
  35   0.0000       0.146391         3.9835
  36   0.0000       0.168056         4.5730
  37   0.0000       0.169428         4.6104

MULLIKEN ATOMIC CHARGES
-----------------------
   0 C :   -0.281593
   1 H :    0.168749
   2 H :    0.205015
   3 H :    0.166275
   4 C :   -0.104878
   5 N :   -0.153091
   6 C :   -0.285315
   7 H :    0.172405
   8 H :    0.175149
   9 H :    0.167846
  10 C :   -0.143301
  11 N :   -0.086820
  12 C :   -0.283864
  13 H :    0.169865
  14 H :    0.156669
  15 H :    0.203897
  16 C :   -0.102789
  17 N :   -0.144218
Sum of atomic charges:   -0.0000000

LOEWDIN ATOMIC CHARGES
----------------------
   0 C :   -0.281068
   1 H :    0.153886
   2 H :    0.157574
   3 H :    0.151438
   4 C :   -0.208480
   5 N :    0.026892
   6 C :   -0.284966
   7 H :    0.151156
   8 H :    0.151852
   9 H :    0.151040
  10 C :   -0.219405
  11 N :    0.050291
  12 C :   -0.283337
  13 H :    0.153617
  14 H :    0.147599
  15 H :    0.156836
  16 C :   -0.210311
  17 N :    0.035385

  Mayer bond orders larger than 0.100000
B(  0-C ,  1-H ) :   0.9134 B(  0-C ,  2-H ) :   0.9019 B(  0-C ,  3-H ) :   0.9164
B(  0-C ,  4-C ) :   0.9011 B(  4-C ,  5-N ) :   2.7764 B(  6-C ,  7-H ) :   0.9177
B(  6-C ,  8-H ) :   0.9156 B(  6-C ,  9-H ) :   0.9185 B(  6-C , 10-C ) :   0.9014
B( 10-C , 11-N ) :   2.8329 B( 12-C , 13-H ) :   0.9142 B( 12-C , 14-H ) :   0.9197
B( 12-C , 15-H ) :   0.9031 B( 12-C , 16-C ) :   0.8996 B( 16-C , 17-N ) :   2.7667

MP2 TOTAL ENERGY:     -397.458566417 Eh
FINAL SINGLE POINT ENERGY      -397.458566416535

DIPOLE MOMENT
-------------
                                X             Y             Z
Electronic contribution:     -0.17408       0.02899      -3.20095
Nuclear contribution   :      0.25976      -0.04148       4.64381
                        -----------------------------------------
Total Dipole Moment    :      0.08568      -0.01249       1.44287
                        -----------------------------------------
Magnitude (a.u.)       :      1.44546
Magnitude (Debye)      :      3.67407

Rotational constants in cm-1:     0.054049     0.014086     0.013267
Rotational constants in MHz :  1620.346294   422.291600   397.747558

                             ****ORCA TERMINATED NORMALLY****
TOTAL RUN TIME: 0 days 0 hours 3 minutes 20 seconds 167 msec
