                         Program Version 4.2.0 -  RELEASE  -
|  1> # 12h2o.su.etal.mol3,4,7,8,9,10
|  2> ! MP2 def2-TZVP EnGrad TightSCF
|  3>
|  4> %pal
|  5>     nprocs 6
|  6> end
|  7>
|  8> %maxcore 8000
|  9>
| 10> %scf
| 11>     ConvForced true
| 12> end
| 13>
| 14> *xyz 0 1
| 15> O  -1.752130000  -0.741530000  -2.896280000
| 16> H  -2.036450000  -0.920500000  -1.984040000
| 17> H  -0.921210000  -1.242140000  -2.984230000
| 18> O  -0.885520000   1.737840000   0.052730000
| 19> H  -1.032320000   2.090180000  -0.841890000
| 20> H  -1.284090000   0.839590000   0.017130000
| 21> O  -1.737840000  -0.885520000  -0.052730000
| 22> H  -2.090180000  -1.032320000   0.841890000
| 23> H  -0.839590000  -1.284090000  -0.017130000
| 24> O   1.752130000   0.741530000  -2.896280000
| 25> H   2.036450000   0.920500000  -1.984040000
| 26> H   0.921210000   1.242140000  -2.984230000
| 27> O   0.741530000  -1.752130000   2.896280000
| 28> H   0.920500000  -2.036450000   1.984040000
| 29> H   1.242140000  -0.921210000   2.984230000
| 30> O  -0.923410000   1.794470000  -2.768350000
| 31> H  -1.359750000   2.338250000  -3.430940000
| 32> H  -1.303000000   0.879480000  -2.865760000
| 33> *
| 34>
| 35>                          ****END OF INPUT****

CARTESIAN COORDINATES (ANGSTROEM)
---------------------------------
  O     -1.752130   -0.741530   -2.896280
  H     -2.036450   -0.920500   -1.984040
  H     -0.921210   -1.242140   -2.984230
  O     -0.885520    1.737840    0.052730
  H     -1.032320    2.090180   -0.841890
  H     -1.284090    0.839590    0.017130
  O     -1.737840   -0.885520   -0.052730
  H     -2.090180   -1.032320    0.841890
  H     -0.839590   -1.284090   -0.017130
  O      1.752130    0.741530   -2.896280
  H      2.036450    0.920500   -1.984040
  H      0.921210    1.242140   -2.984230
  O      0.741530   -1.752130    2.896280
  H      0.920500   -2.036450    1.984040
  H      1.242140   -0.921210    2.984230
  O     -0.923410    1.794470   -2.768350
  H     -1.359750    2.338250   -3.430940
  H     -1.303000    0.879480   -2.865760

 Total Charge           Charge          ....    0
 Multiplicity           Mult            ....    1
 Number of Electrons    NEL             ....   60
 Basis Dimension        Dim             ....  258

ORBITAL ENERGIES
----------------

  NO   OCC          E(Eh)            E(eV)
   0   2.0000     -20.628295      -561.3244
   1   2.0000     -20.591642      -560.3271
   2   2.0000     -20.583559      -560.1071
   3   2.0000     -20.562167      -559.5250
   4   2.0000     -20.534373      -558.7687
   5   2.0000     -20.512918      -558.1849
   6   2.0000      -1.411557       -38.4104
   7   2.0000      -1.380812       -37.5738
   8   2.0000      -1.362473       -37.0748
   9   2.0000      -1.347984       -36.6805
  10   2.0000      -1.316301       -35.8184
  11   2.0000      -1.297329       -35.3021
  12   2.0000      -0.771181       -20.9849
  13   2.0000      -0.740973       -20.1629
  14   2.0000      -0.729830       -19.8597
  15   2.0000      -0.725300       -19.7364
  16   2.0000      -0.686709       -18.6863
  17   2.0000      -0.685392       -18.6505
  18   2.0000      -0.655666       -17.8416
  19   2.0000      -0.616748       -16.7826
  20   2.0000      -0.599658       -16.3175
  21   2.0000      -0.598676       -16.2908
  22   2.0000      -0.574792       -15.6409
  23   2.0000      -0.555676       -15.1207
  24   2.0000      -0.531975       -14.4758
  25   2.0000      -0.527140       -14.3442
  26   2.0000      -0.526381       -14.3235
  27   2.0000      -0.503069       -13.6892
  28   2.0000      -0.482297       -13.1240
  29   2.0000      -0.463470       -12.6117
  30   0.0000       0.068772         1.8714
  31   0.0000       0.122352         3.3294
  32   0.0000       0.141706         3.8560
  33   0.0000       0.151225         4.1151
  34   0.0000       0.170442         4.6380

MULLIKEN ATOMIC CHARGES
-----------------------
   0 O :   -0.696610
   1 H :    0.387376
   2 H :    0.356298
   3 O :   -0.732116
   4 H :    0.363606
   5 H :    0.333318
   6 O :   -0.708871
   7 H :    0.382472
   8 H :    0.352285
   9 O :   -0.717311
  10 H :    0.330560
  11 H :    0.363752
  12 O :   -0.670713
  13 H :    0.324082
  14 H :    0.351402
  15 O :   -0.748613
  16 H :    0.347577
  17 H :    0.381506
Sum of atomic charges:    0.0000000

LOEWDIN ATOMIC CHARGES
----------------------
   0 O :   -0.271546
   1 H :    0.158710
   2 H :    0.173416
   3 O :   -0.369694
   4 H :    0.144433
   5 H :    0.131991
   6 O :   -0.276564
   7 H :    0.183614
   8 H :    0.176425
   9 O :   -0.352142
  10 H :    0.159786
  11 H :    0.146918
  12 O :   -0.327825
  13 H :    0.157913
  14 H :    0.173453
  15 O :   -0.312821
  16 H :    0.157867
  17 H :    0.146067

  Mayer bond orders larger than 0.100000
B(  0-O ,  1-H ) :   0.8049 B(  0-O ,  2-H ) :   0.8346 B(  3-O ,  4-H ) :   0.8208
B(  3-O ,  5-H ) :   0.8271 B(  6-O ,  7-H ) :   0.8202 B(  6-O ,  8-H ) :   0.8308
B(  9-O , 10-H ) :   0.8556 B(  9-O , 11-H ) :   0.8095 B( 12-O , 13-H ) :   0.8594
B( 12-O , 14-H ) :   0.8441 B( 15-O , 16-H ) :   0.8417 B( 15-O , 17-H ) :   0.7466

MP2 TOTAL ENERGY:     -457.918994081 Eh
FINAL SINGLE POINT ENERGY      -457.918994081478

DIPOLE MOMENT
-------------
                                X             Y             Z
Electronic contribution:     -0.33616      -0.28179       0.05754
Nuclear contribution   :     -0.11304      -0.76235       0.05351
                        -----------------------------------------
Total Dipole Moment    :     -0.44920      -1.04414       0.11105
                        -----------------------------------------
Magnitude (a.u.)       :      1.14208
Magnitude (Debye)      :      2.90293

Rotational constants in cm-1:     0.055332     0.024467     0.022458
Rotational constants in MHz :  1658.812602   733.500722   673.269833

                             ****ORCA TERMINATED NORMALLY****
TOTAL RUN TIME: 0 days 0 hours 1 minutes 5 seconds 48 msec
