                         Program Version 4.2.0 -  RELEASE  -
|  1> # 12meoh.boyd.etal.mol1,4,8
|  2> ! MP2 def2-TZVP EnGrad TightSCF
|  3>
|  4> %pal
|  5>     nprocs 6
|  6> end
|  7>
|  8> %maxcore 8000
|  9>
| 10> %scf
| 11>     ConvForced true
| 12> end
| 13>
| 14> *xyz 0 1
| 15> O   0.666045193  -2.600503172   0.138317521
| 16> H  -0.227115049  -2.712051982  -0.281868004
| 17> C   0.490021232  -1.851247678   1.341189459
| 18> H   1.466500502  -1.466176022   1.645844415
| 19> H   0.097564527  -2.488364683   2.146902740
| 20> H  -0.187588112  -1.000787499   1.200739571
| 21> O  -1.358578914   1.232360421   1.189721000
| 22> H  -1.058250183   1.216459361   0.238591307
| 23> C  -0.389763452   1.957872567   1.943072362
| 24> H  -0.747220771   2.012806578   2.975200343
| 25> H  -0.260410585   2.982763209   1.565366540
| 26> H   0.585220638   1.453754179   1.934070793
| 27> O   3.570084754   2.361662577  -0.202416728
| 28> H   3.393280933   1.755669977   0.560634073
| 29> C   4.368082883   1.644741793  -1.143112807
| 30> H   4.552851717   2.311801738  -1.989632421
| 31> H   3.862427494   0.740851663  -1.508095690
| 32> H   5.333949674   1.357289092  -0.706288100
| 33> *
| 34>
| 35>                          ****END OF INPUT****

CARTESIAN COORDINATES (ANGSTROEM)
---------------------------------
  O      0.666045   -2.600503    0.138318
  H     -0.227115   -2.712052   -0.281868
  C      0.490021   -1.851248    1.341189
  H      1.466501   -1.466176    1.645844
  H      0.097565   -2.488365    2.146903
  H     -0.187588   -1.000787    1.200740
  O     -1.358579    1.232360    1.189721
  H     -1.058250    1.216459    0.238591
  C     -0.389763    1.957873    1.943072
  H     -0.747221    2.012807    2.975200
  H     -0.260411    2.982763    1.565367
  H      0.585221    1.453754    1.934071
  O      3.570085    2.361663   -0.202417
  H      3.393281    1.755670    0.560634
  C      4.368083    1.644742   -1.143113
  H      4.552852    2.311802   -1.989632
  H      3.862427    0.740852   -1.508096
  H      5.333950    1.357289   -0.706288

 Total Charge           Charge          ....    0
 Multiplicity           Mult            ....    1
 Number of Electrons    NEL             ....   54
 Basis Dimension        Dim             ....  258

ORBITAL ENERGIES
----------------

  NO   OCC          E(Eh)            E(eV)
   0   2.0000     -20.566058      -559.6309
   1   2.0000     -20.561303      -559.5015
   2   2.0000     -20.556746      -559.3775
   3   2.0000     -11.277363      -306.8727
   4   2.0000     -11.273649      -306.7716
   5   2.0000     -11.268174      -306.6226
   6   2.0000      -1.353682       -36.8356
   7   2.0000      -1.350566       -36.7508
   8   2.0000      -1.344916       -36.5970
   9   2.0000      -0.925499       -25.1841
  10   2.0000      -0.922173       -25.0936
  11   2.0000      -0.918208       -24.9857
  12   2.0000      -0.687981       -18.7209
  13   2.0000      -0.685000       -18.6398
  14   2.0000      -0.679994       -18.5036
  15   2.0000      -0.627605       -17.0780
  16   2.0000      -0.619543       -16.8586
  17   2.0000      -0.611450       -16.6384
  18   2.0000      -0.597146       -16.2492
  19   2.0000      -0.592830       -16.1317
  20   2.0000      -0.589688       -16.0462
  21   2.0000      -0.507311       -13.8046
  22   2.0000      -0.504546       -13.7294
  23   2.0000      -0.500150       -13.6098
  24   2.0000      -0.457527       -12.4500
  25   2.0000      -0.452973       -12.3260
  26   2.0000      -0.446312       -12.1448
  27   0.0000       0.102860         2.7990
  28   0.0000       0.133413         3.6304
  29   0.0000       0.151514         4.1229
  30   0.0000       0.165242         4.4965
  31   0.0000       0.186089         5.0637

MULLIKEN ATOMIC CHARGES
-----------------------
   0 O :   -0.503817
   1 H :    0.323370
   2 C :   -0.169896
   3 H :    0.111044
   4 H :    0.110346
   5 H :    0.111668
   6 O :   -0.496357
   7 H :    0.328861
   8 C :   -0.167480
   9 H :    0.131445
  10 H :    0.127433
  11 H :    0.091968
  12 O :   -0.499410
  13 H :    0.319925
  14 C :   -0.178333
  15 H :    0.129506
  16 H :    0.117517
  17 H :    0.112209
Sum of atomic charges:   -0.0000000

LOEWDIN ATOMIC CHARGES
----------------------
   0 O :   -0.114698
   1 H :    0.189902
   2 C :   -0.383013
   3 H :    0.104026
   4 H :    0.097366
   5 H :    0.098529
   6 O :   -0.107951
   7 H :    0.192963
   8 C :   -0.380625
   9 H :    0.111167
  10 H :    0.101481
  11 H :    0.090288
  12 O :   -0.111654
  13 H :    0.185689
  14 C :   -0.377729
  15 H :    0.110403
  16 H :    0.097438
  17 H :    0.096417

  Mayer bond orders larger than 0.100000
B(  0-O ,  1-H ) :   0.8427 B(  0-O ,  2-C ) :   0.9174 B(  2-C ,  3-H ) :   0.9369
B(  2-C ,  4-H ) :   0.9367 B(  2-C ,  5-H ) :   0.9357 B(  6-O ,  7-H ) :   0.8374
B(  6-O ,  8-C ) :   0.9103 B(  8-C ,  9-H ) :   0.9375 B(  8-C , 10-H ) :   0.9402
B(  8-C , 11-H ) :   0.9380 B( 12-O , 13-H ) :   0.8437 B( 12-O , 14-C ) :   0.9204
B( 14-C , 15-H ) :   0.9370 B( 14-C , 16-H ) :   0.9370 B( 14-C , 17-H ) :   0.9408

MP2 TOTAL ENERGY:     -346.523191454 Eh
FINAL SINGLE POINT ENERGY      -346.523191454445

DIPOLE MOMENT
-------------
                                X             Y             Z
Electronic contribution:     -1.99275      -0.76774      -1.23158
Nuclear contribution   :      2.09841       0.72472       1.25345
                        -----------------------------------------
Total Dipole Moment    :      0.10566      -0.04302       0.02187
                        -----------------------------------------
Magnitude (a.u.)       :      0.11616
Magnitude (Debye)      :      0.29525

Rotational constants in cm-1:     0.051382     0.028670     0.019525
Rotational constants in MHz :  1540.388465   859.517283   585.330262

                             ****ORCA TERMINATED NORMALLY****
TOTAL RUN TIME: 0 days 0 hours 1 minutes 4 seconds 139 msec
