                         Program Version 4.2.0 -  RELEASE  -
|  1> # 12h2o.su.etal.mol2,4,10,11
|  2> ! MP2 def2-TZVP EnGrad TightSCF
|  3>
|  4> %pal
|  5>     nprocs 6
|  6> end
|  7>
|  8> %maxcore 8000
|  9>
| 10> %scf
| 11>     ConvForced true
| 12> end
| 13>
| 14> *xyz 0 1
| 15> O   0.923410000  -1.794470000  -2.768350000
| 16> H   1.359750000  -2.338250000  -3.430940000
| 17> H   1.303000000  -0.879480000  -2.865760000
| 18> O  -0.885520000   1.737840000   0.052730000
| 19> H  -1.032320000   2.090180000  -0.841890000
| 20> H  -1.284090000   0.839590000   0.017130000
| 21> O  -0.923410000   1.794470000  -2.768350000
| 22> H  -1.359750000   2.338250000  -3.430940000
| 23> H  -1.303000000   0.879480000  -2.865760000
| 24> O  -0.741530000   1.752130000   2.896280000
| 25> H  -0.920500000   2.036450000   1.984040000
| 26> H  -1.242140000   0.921210000   2.984230000
| 27> *
| 28>
| 29>                          ****END OF INPUT****

CARTESIAN COORDINATES (ANGSTROEM)
---------------------------------
  O      0.923410   -1.794470   -2.768350
  H      1.359750   -2.338250   -3.430940
  H      1.303000   -0.879480   -2.865760
  O     -0.885520    1.737840    0.052730
  H     -1.032320    2.090180   -0.841890
  H     -1.284090    0.839590    0.017130
  O     -0.923410    1.794470   -2.768350
  H     -1.359750    2.338250   -3.430940
  H     -1.303000    0.879480   -2.865760
  O     -0.741530    1.752130    2.896280
  H     -0.920500    2.036450    1.984040
  H     -1.242140    0.921210    2.984230

 Total Charge           Charge          ....    0
 Multiplicity           Mult            ....    1
 Number of Electrons    NEL             ....   40
 Basis Dimension        Dim             ....  172

ORBITAL ENERGIES
----------------

  NO   OCC          E(Eh)            E(eV)
   0   2.0000     -20.601233      -560.5881
   1   2.0000     -20.571774      -559.7864
   2   2.0000     -20.556513      -559.3711
   3   2.0000     -20.519444      -558.3625
   4   2.0000      -1.379194       -37.5298
   5   2.0000      -1.347091       -36.6562
   6   2.0000      -1.337828       -36.4041
   7   2.0000      -1.301133       -35.4056
   8   2.0000      -0.745957       -20.2985
   9   2.0000      -0.715327       -19.4650
  10   2.0000      -0.707355       -19.2481
  11   2.0000      -0.669124       -18.2078
  12   2.0000      -0.618460       -16.8291
  13   2.0000      -0.584012       -15.8918
  14   2.0000      -0.583237       -15.8707
  15   2.0000      -0.546281       -14.8651
  16   2.0000      -0.530680       -14.4405
  17   2.0000      -0.515104       -14.0167
  18   2.0000      -0.501635       -13.6502
  19   2.0000      -0.465920       -12.6783
  20   0.0000       0.089395         2.4326
  21   0.0000       0.129850         3.5334
  22   0.0000       0.141944         3.8625
  23   0.0000       0.177235         4.8228
  24   0.0000       0.197427         5.3723

MULLIKEN ATOMIC CHARGES
-----------------------
   0 O :   -0.691049
   1 H :    0.341833
   2 H :    0.349960
   3 O :   -0.703701
   4 H :    0.373938
   5 H :    0.325546
   6 O :   -0.698336
   7 H :    0.354104
   8 H :    0.357696
   9 O :   -0.695461
  10 H :    0.371485
  11 H :    0.313986
Sum of atomic charges:   -0.0000000

LOEWDIN ATOMIC CHARGES
----------------------
   0 O :   -0.341755
   1 H :    0.159484
   2 H :    0.182659
   3 O :   -0.324684
   4 H :    0.153172
   5 H :    0.165635
   6 O :   -0.311059
   7 H :    0.164588
   8 H :    0.185896
   9 O :   -0.341920
  10 H :    0.152557
  11 H :    0.155427

  Mayer bond orders larger than 0.100000
B(  0-O ,  1-H ) :   0.8513 B(  0-O ,  2-H ) :   0.8391 B(  3-O ,  4-H ) :   0.8091
B(  3-O ,  5-H ) :   0.8527 B(  6-O ,  7-H ) :   0.8405 B(  6-O ,  8-H ) :   0.8300
B(  9-O , 10-H ) :   0.8171 B(  9-O , 11-H ) :   0.8661

MP2 TOTAL ENERGY:     -305.264783368 Eh
FINAL SINGLE POINT ENERGY      -305.264783368018

DIPOLE MOMENT
-------------
                                X             Y             Z
Electronic contribution:      0.22583       0.20224       0.02660
Nuclear contribution   :     -1.01960      -0.90936      -2.72557
                        -----------------------------------------
Total Dipole Moment    :     -0.79377      -0.70712      -2.69897
                        -----------------------------------------
Magnitude (a.u.)       :      2.90078
Magnitude (Debye)      :      7.37321

Rotational constants in cm-1:     0.121154     0.035094     0.027427
Rotational constants in MHz :  3632.109460  1052.080527   822.237141

                             ****ORCA TERMINATED NORMALLY****
TOTAL RUN TIME: 0 days 0 hours 0 minutes 19 seconds 406 msec
