                         Program Version 3.0.3 - RELEASE   -
|  1> ! wB97X-D3 Def2-TZVP def2-TZVP/J RIJCOSX TightSCF Grid4
|  2>
|  3> %pal nprocs 12 end
|  4>
|  5> %scf
|  6>         maxiter 400
|  7> end
|  8>
|  9> * xyz  0  1
| 10> O  -0.209608	2.285122	-0.370503
| 11> H  0.106562	1.759431	-1.160584
| 12> H  0.456319	2.032255	0.331890
| 13> O  0.222153	-2.230562	0.354191
| 14> H  1.075969	-1.696493	0.056429
| 15> H  0.506740	-3.155621	0.466550
| 16> O  -1.418812	-1.102467	-1.478223
| 17> H  -1.874780	-0.472971	-0.848067
| 18> H  -0.919583	-1.702411	-0.853486
| 19> O  1.373272	1.070446	1.454861
| 20> H  1.854469	1.450127	2.212041
| 21> H  0.609911	0.473217	1.859102
| 22> O  -0.541535	-0.427200	2.219434
| 23> H  -1.276250	-0.013026	1.682072
| 24> H  -0.316271	-1.238481	1.678743
| 25> O  -2.113687	0.752463	0.359076
| 26> H  -2.947653	1.243745	0.470721
| 27> H  -1.393373	1.454767	0.060570
| 28> O  2.168796	-0.754400	-0.372890
| 29> H  2.084532	-0.047828	0.330131
| 30> H  1.735260	-0.321266	-1.163246
| 31> O  0.521246	0.402432	-2.171659
| 32> H  0.590337	0.467773	-3.141470
| 33> H  -0.294014	-0.229051	-1.975684
| 34> **                         ****END OF INPUT****

CARTESIAN COORDINATES (ANGSTROEM)
---------------------------------
  O     -0.209608    2.285122   -0.370503
  H      0.106562    1.759431   -1.160584
  H      0.456319    2.032255    0.331890
  O      0.222153   -2.230562    0.354191
  H      1.075969   -1.696493    0.056429
  H      0.506740   -3.155621    0.466550
  O     -1.418812   -1.102467   -1.478223
  H     -1.874780   -0.472971   -0.848067
  H     -0.919583   -1.702411   -0.853486
  O      1.373272    1.070446    1.454861
  H      1.854469    1.450127    2.212041
  H      0.609911    0.473217    1.859102
  O     -0.541535   -0.427200    2.219434
  H     -1.276250   -0.013026    1.682072
  H     -0.316271   -1.238481    1.678743
  O     -2.113687    0.752463    0.359076
  H     -2.947653    1.243745    0.470721
  H     -1.393373    1.454767    0.060570
  O      2.168796   -0.754400   -0.372890
  H      2.084532   -0.047828    0.330131
  H      1.735260   -0.321266   -1.163246
  O      0.521246    0.402432   -2.171659
  H      0.590337    0.467773   -3.141470
  H     -0.294014   -0.229051   -1.975684

 Total Charge           Charge          ....    0
 Multiplicity           Mult            ....    1
 Number of Electrons    NEL             ....   80
 Basis Dimension        Dim             ....  344

ORBITAL ENERGIES
----------------

  NO   OCC          E(Eh)            E(eV)
   0   2.0000     -19.244328      -523.6648
   1   2.0000     -19.244285      -523.6636
   2   2.0000     -19.243968      -523.6550
   3   2.0000     -19.243608      -523.6452
   4   2.0000     -19.227939      -523.2188
   5   2.0000     -19.227699      -523.2123
   6   2.0000     -19.227697      -523.2122
   7   2.0000     -19.227347      -523.2027
   8   2.0000      -1.150984       -31.3199
   9   2.0000      -1.134986       -30.8845
  10   2.0000      -1.134844       -30.8807
  11   2.0000      -1.126368       -30.6500
  12   2.0000      -1.115272       -30.3481
  13   2.0000      -1.106558       -30.1110
  14   2.0000      -1.106349       -30.1053
  15   2.0000      -1.091563       -29.7029
  16   2.0000      -0.648928       -17.6582
  17   2.0000      -0.648839       -17.6558
  18   2.0000      -0.647310       -17.6142
  19   2.0000      -0.640538       -17.4299
  20   2.0000      -0.628195       -17.0941
  21   2.0000      -0.617762       -16.8102
  22   2.0000      -0.617704       -16.8086
  23   2.0000      -0.616915       -16.7871
  24   2.0000      -0.578830       -15.7508
  25   2.0000      -0.534352       -14.5405
  26   2.0000      -0.521988       -14.2040
  27   2.0000      -0.521860       -14.2005
  28   2.0000      -0.494088       -13.4448
  29   2.0000      -0.493853       -13.4384
  30   2.0000      -0.486326       -13.2336
  31   2.0000      -0.450448       -12.2573
  32   2.0000      -0.428443       -11.6585
  33   2.0000      -0.427912       -11.6441
  34   2.0000      -0.427853       -11.6425
  35   2.0000      -0.423932       -11.5358
  36   2.0000      -0.412576       -11.2268
  37   2.0000      -0.410030       -11.1575
  38   2.0000      -0.409934       -11.1549
  39   2.0000      -0.409661       -11.1474
  40   0.0000       0.086373         2.3503
  41   0.0000       0.122783         3.3411
  42   0.0000       0.122797         3.3415
  43   0.0000       0.124201         3.3797
  44   0.0000       0.201189         5.4746

MULLIKEN ATOMIC CHARGES
-----------------------
   0 O :   -0.686634
   1 H :    0.369423
   2 H :    0.369782
   3 O :   -0.773677
   4 H :    0.365175
   5 H :    0.353804
   6 O :   -0.686555
   7 H :    0.370405
   8 H :    0.370375
   9 O :   -0.773879
  10 H :    0.353919
  11 H :    0.366440
  12 O :   -0.685843
  13 H :    0.369506
  14 H :    0.369592
  15 O :   -0.773861
  16 H :    0.354151
  17 H :    0.366808
  18 O :   -0.686002
  19 H :    0.369889
  20 H :    0.370637
  21 O :   -0.773821
  22 H :    0.354471
  23 H :    0.365894
Sum of atomic charges:   -0.0000000

LOEWDIN ATOMIC CHARGES
----------------------
   0 O :   -0.277031
   1 H :    0.147312
   2 H :    0.147203
   3 O :   -0.323910
   4 H :    0.142088
   5 H :    0.162258
   6 O :   -0.276475
   7 H :    0.147246
   8 H :    0.147391
   9 O :   -0.322838
  10 H :    0.162217
  11 H :    0.142285
  12 O :   -0.275958
  13 H :    0.147312
  14 H :    0.147482
  15 O :   -0.322454
  16 H :    0.162456
  17 H :    0.142640
  18 O :   -0.275789
  19 H :    0.147011
  20 H :    0.146980
  21 O :   -0.322565
  22 H :    0.162526
  23 H :    0.142615

  Mayer bond orders larger than 0.1
B(  0-O ,  1-H ) :   0.8116 B(  0-O ,  2-H ) :   0.8112 B(  0-O , 17-H ) :   0.2285
B(  3-O ,  4-H ) :   0.6899 B(  3-O ,  5-H ) :   0.8780 B(  3-O , 14-H ) :   0.1001
B(  4-H , 18-O ) :   0.2313 B(  6-O ,  7-H ) :   0.8108 B(  6-O ,  8-H ) :   0.8119
B(  6-O , 23-H ) :   0.2296 B(  9-O , 10-H ) :   0.8778 B(  9-O , 11-H ) :   0.6902
B( 11-H , 12-O ) :   0.2296 B( 12-O , 13-H ) :   0.8118 B( 12-O , 14-H ) :   0.8107
B( 15-O , 16-H ) :   0.8776 B( 15-O , 17-H ) :   0.6911 B( 18-O , 19-H ) :   0.8111
B( 18-O , 20-H ) :   0.8108 B( 21-O , 22-H ) :   0.8775 B( 21-O , 23-H ) :   0.6910

Dispersion correction           -0.012648140
FINAL SINGLE POINT ENERGY      -611.634953940955

DIPOLE MOMENT
-------------
                                X             Y             Z
Electronic contribution:     -0.00206       0.00119      -0.00391
Nuclear contribution   :     -0.00456       0.01040       0.01426
                        -----------------------------------------
Total Dipole Moment    :     -0.00662       0.01160       0.01036
                        -----------------------------------------
Magnitude (a.u.)       :      0.01690
Magnitude (Debye)      :      0.04296

                             ****ORCA TERMINATED NORMALLY****
TOTAL RUN TIME: 0 days 0 hours 1 minutes 6 seconds 946 msec
