                         Program Version 3.0.3 - RELEASE   -
|  1> ! wB97X-D3 Def2-TZVP def2-TZVP/J RIJCOSX TightSCF Grid4 COSMO
|  2>
|  3> %pal nprocs 12 end
|  4>
|  5> %scf
|  6>         maxiter 400
|  7> end
|  8>
|  9> %cosmo
| 10>         SMD true
| 11>         solvent "WATER"
| 12> end
| 13>
| 14> * xyz  0  1
| 15> O  -0.181690	2.327180	-0.386723
| 16> H  0.102854	1.750384	-1.157158
| 17> H  0.450072	2.022552	0.331400
| 18> O  0.198815	-2.209437	0.353795
| 19> H  1.062136	-1.726714	0.065323
| 20> H  0.449560	-3.145337	0.482787
| 21> O  -1.457945	-1.133419	-1.478172
| 22> H  -1.869740	-0.469245	-0.848190
| 23> H  -0.911101	-1.694824	-0.852223
| 24> O  1.368298	1.067895	1.420901
| 25> H  1.874688	1.466264	2.155733
| 26> H  0.635454	0.493506	1.863059
| 27> O  -0.572993	-0.453527	2.243668
| 28> H  -1.268301	-0.009150	1.673018
| 29> H  -0.311919	-1.237201	1.673544
| 30> O  -2.098893	0.726064	0.359198
| 31> H  -2.951451	1.187850	0.482889
| 32> H  -1.426403	1.449157	0.067894
| 33> O  2.218705	-0.739246	-0.384268
| 34> H  2.080099	-0.050762	0.332841
| 35> H  1.728367	-0.325889	-1.156173
| 36> O  0.533876	0.407600	-2.139882
| 37> H  0.622075	0.511091	-3.107856
| 38> H  -0.274565	-0.214793	-1.995407
| 39> **                         ****END OF INPUT****

CARTESIAN COORDINATES (ANGSTROEM)
---------------------------------
  O     -0.181690    2.327180   -0.386723
  H      0.102854    1.750384   -1.157158
  H      0.450072    2.022552    0.331400
  O      0.198815   -2.209437    0.353795
  H      1.062136   -1.726714    0.065323
  H      0.449560   -3.145337    0.482787
  O     -1.457945   -1.133419   -1.478172
  H     -1.869740   -0.469245   -0.848190
  H     -0.911101   -1.694824   -0.852223
  O      1.368298    1.067895    1.420901
  H      1.874688    1.466264    2.155733
  H      0.635454    0.493506    1.863059
  O     -0.572993   -0.453527    2.243668
  H     -1.268301   -0.009150    1.673018
  H     -0.311919   -1.237201    1.673544
  O     -2.098893    0.726064    0.359198
  H     -2.951451    1.187850    0.482889
  H     -1.426403    1.449157    0.067894
  O      2.218705   -0.739246   -0.384268
  H      2.080099   -0.050762    0.332841
  H      1.728367   -0.325889   -1.156173
  O      0.533876    0.407600   -2.139882
  H      0.622075    0.511091   -3.107856
  H     -0.274565   -0.214793   -1.995407

 Total Charge           Charge          ....    0
 Multiplicity           Mult            ....    1
 Number of Electrons    NEL             ....   80
 Basis Dimension        Dim             ....  344

ORBITAL ENERGIES
----------------

  NO   OCC          E(Eh)            E(eV)
   0   2.0000     -19.238082      -523.4948
   1   2.0000     -19.237991      -523.4923
   2   2.0000     -19.237975      -523.4919
   3   2.0000     -19.237700      -523.4844
   4   2.0000     -19.226607      -523.1826
   5   2.0000     -19.226560      -523.1813
   6   2.0000     -19.226321      -523.1748
   7   2.0000     -19.226261      -523.1732
   8   2.0000      -1.145821       -31.1794
   9   2.0000      -1.128869       -30.7181
  10   2.0000      -1.128821       -30.7168
  11   2.0000      -1.122645       -30.5487
  12   2.0000      -1.110434       -30.2164
  13   2.0000      -1.104117       -30.0446
  14   2.0000      -1.104049       -30.0427
  15   2.0000      -1.088160       -29.6103
  16   2.0000      -0.638710       -17.3802
  17   2.0000      -0.638586       -17.3768
  18   2.0000      -0.638126       -17.3643
  19   2.0000      -0.628784       -17.1101
  20   2.0000      -0.624663       -16.9980
  21   2.0000      -0.614408       -16.7189
  22   2.0000      -0.614260       -16.7149
  23   2.0000      -0.613677       -16.6990
  24   2.0000      -0.573427       -15.6037
  25   2.0000      -0.538064       -14.6415
  26   2.0000      -0.518815       -14.1177
  27   2.0000      -0.518247       -14.1022
  28   2.0000      -0.494529       -13.4568
  29   2.0000      -0.493784       -13.4365
  30   2.0000      -0.480771       -13.0825
  31   2.0000      -0.454142       -12.3578
  32   2.0000      -0.423688       -11.5291
  33   2.0000      -0.423403       -11.5214
  34   2.0000      -0.421701       -11.4751
  35   2.0000      -0.418348       -11.3838
  36   2.0000      -0.416597       -11.3362
  37   2.0000      -0.412703       -11.2302
  38   2.0000      -0.412588       -11.2271
  39   2.0000      -0.410100       -11.1594
  40   0.0000       0.101288         2.7562
  41   0.0000       0.148548         4.0422
  42   0.0000       0.148705         4.0465
  43   0.0000       0.149899         4.0790
  44   0.0000       0.215119         5.8537

MULLIKEN ATOMIC CHARGES
-----------------------
   0 O :   -0.763363
   1 H :    0.381293
   2 H :    0.381434
   3 O :   -0.785515
   4 H :    0.375779
   5 H :    0.407423
   6 O :   -0.762517
   7 H :    0.382778
   8 H :    0.382419
   9 O :   -0.786459
  10 H :    0.407296
  11 H :    0.378310
  12 O :   -0.761996
  13 H :    0.381685
  14 H :    0.381688
  15 O :   -0.785756
  16 H :    0.407629
  17 H :    0.377635
  18 O :   -0.762576
  19 H :    0.381643
  20 H :    0.382754
  21 O :   -0.785884
  22 H :    0.407741
  23 H :    0.376559
Sum of atomic charges:   -0.0000000

LOEWDIN ATOMIC CHARGES
----------------------
   0 O :   -0.335674
   1 H :    0.147252
   2 H :    0.146990
   3 O :   -0.300302
   4 H :    0.149625
   5 H :    0.189638
   6 O :   -0.333288
   7 H :    0.147406
   8 H :    0.147142
   9 O :   -0.299892
  10 H :    0.189434
  11 H :    0.149640
  12 O :   -0.332678
  13 H :    0.147357
  14 H :    0.147406
  15 O :   -0.299312
  16 H :    0.189847
  17 H :    0.150097
  18 O :   -0.334331
  19 H :    0.147036
  20 H :    0.146967
  21 O :   -0.299665
  22 H :    0.189674
  23 H :    0.149630

  Mayer bond orders larger than 0.1
B(  0-O ,  1-H ) :   0.7922 B(  0-O ,  2-H ) :   0.7920 B(  0-O , 17-H ) :   0.1761
B(  1-H , 21-O ) :   0.1123 B(  2-H ,  9-O ) :   0.1124 B(  3-O ,  4-H ) :   0.7277
B(  3-O ,  5-H ) :   0.8372 B(  3-O ,  8-H ) :   0.1106 B(  3-O , 14-H ) :   0.1124
B(  4-H , 18-O ) :   0.1790 B(  6-O ,  7-H ) :   0.7914 B(  6-O ,  8-H ) :   0.7924
B(  6-O , 23-H ) :   0.1783 B(  7-H , 15-O ) :   0.1114 B(  9-O , 10-H ) :   0.8372
B(  9-O , 11-H ) :   0.7266 B(  9-O , 19-H ) :   0.1123 B( 11-H , 12-O ) :   0.1774
B( 12-O , 13-H ) :   0.7924 B( 12-O , 14-H ) :   0.7916 B( 13-H , 15-O ) :   0.1114
B( 15-O , 16-H ) :   0.8369 B( 15-O , 17-H ) :   0.7287 B( 18-O , 19-H ) :   0.7918
B( 18-O , 20-H ) :   0.7916 B( 20-H , 21-O ) :   0.1114 B( 21-O , 22-H ) :   0.8369
B( 21-O , 23-H ) :   0.7276

Dispersion correction           -0.012601795
FINAL SINGLE POINT ENERGY      -611.667072324709

DIPOLE MOMENT
-------------
                                X             Y             Z
Electronic contribution:     -0.00936      -0.00253       0.00212
Nuclear contribution   :     -0.02041       0.01720       0.02867
                        -----------------------------------------
Total Dipole Moment    :     -0.02977       0.01468       0.03080
                        -----------------------------------------
Magnitude (a.u.)       :      0.04528
Magnitude (Debye)      :      0.11508

                             ****ORCA TERMINATED NORMALLY****
TOTAL RUN TIME: 0 days 0 hours 1 minutes 10 seconds 988 msec
