                         Program Version 3.0.3 - RELEASE   -
|  1> ! B3LYP Def2-TZVP def2-TZVP/J RIJCOSX TightSCF Grid4 D3BJ COSMO
|  2>
|  3> %pal nprocs 12 end
|  4>
|  5> %scf
|  6>         maxiter 400
|  7> end
|  8>
|  9> %cosmo
| 10>         SMD true
| 11>         solvent "WATER"
| 12> end
| 13>
| 14> * xyz  0  1
| 15> O  -0.081123	2.278696	-0.336208
| 16> H  0.166909	1.709215	-1.101791
| 17> H  0.531144	1.985970	0.380442
| 18> O  0.262665	-2.194642	0.329439
| 19> H  1.096394	-1.714854	0.055475
| 20> H  0.520137	-3.121580	0.450077
| 21> O  -1.590289	-1.227129	-1.456661
| 22> H  -1.971665	-0.542475	-0.858885
| 23> H  -1.005524	-1.743201	-0.853628
| 24> O  1.440266	1.064030	1.550878
| 25> H  1.893183	1.445316	2.317870
| 26> H  0.680183	0.513552	1.913184
| 27> O  -0.613208	-0.434214	2.180645
| 28> H  -1.305976	-0.000625	1.627449
| 29> H  -0.338219	-1.208365	1.632425
| 30> O  -2.164356	0.782233	0.318547
| 31> H  -2.984852	1.286647	0.429085
| 32> H  -1.459255	1.450710	0.072411
| 33> O  2.302760	-0.612477	-0.412329
| 34> H  2.154632	0.028836	0.321892
| 35> H  1.768457	-0.249261	-1.157232
| 36> O  0.466534	0.327143	-2.194713
| 37> H  0.555559	0.443564	-3.152627
| 38> H  -0.324357	-0.267090	-2.055747
| 39> **                         ****END OF INPUT****

CARTESIAN COORDINATES (ANGSTROEM)
---------------------------------
  O     -0.081123    2.278696   -0.336208
  H      0.166909    1.709215   -1.101791
  H      0.531144    1.985970    0.380442
  O      0.262665   -2.194642    0.329439
  H      1.096394   -1.714854    0.055475
  H      0.520137   -3.121580    0.450077
  O     -1.590289   -1.227129   -1.456661
  H     -1.971665   -0.542475   -0.858885
  H     -1.005524   -1.743201   -0.853628
  O      1.440266    1.064030    1.550878
  H      1.893183    1.445316    2.317870
  H      0.680183    0.513552    1.913184
  O     -0.613208   -0.434214    2.180645
  H     -1.305976   -0.000625    1.627449
  H     -0.338219   -1.208365    1.632425
  O     -2.164356    0.782233    0.318547
  H     -2.984852    1.286647    0.429085
  H     -1.459255    1.450710    0.072411
  O      2.302760   -0.612477   -0.412329
  H      2.154632    0.028836    0.321892
  H      1.768457   -0.249261   -1.157232
  O      0.466534    0.327143   -2.194713
  H      0.555559    0.443564   -3.152627
  H     -0.324357   -0.267090   -2.055747

 Total Charge           Charge          ....    0
 Multiplicity           Mult            ....    1
 Number of Electrons    NEL             ....   80
 Basis Dimension        Dim             ....  344

ORBITAL ENERGIES
----------------

  NO   OCC          E(Eh)            E(eV)
   0   2.0000     -19.131851      -520.6041
   1   2.0000     -19.131346      -520.5904
   2   2.0000     -19.129318      -520.5352
   3   2.0000     -19.127948      -520.4979
   4   2.0000     -19.117295      -520.2081
   5   2.0000     -19.117112      -520.2031
   6   2.0000     -19.115940      -520.1712
   7   2.0000     -19.115827      -520.1681
   8   2.0000      -1.030518       -28.0418
   9   2.0000      -1.016497       -27.6603
  10   2.0000      -1.016346       -27.6562
  11   2.0000      -1.011839       -27.5335
  12   2.0000      -0.999069       -27.1860
  13   2.0000      -0.994415       -27.0594
  14   2.0000      -0.994195       -27.0534
  15   2.0000      -0.981300       -26.7025
  16   2.0000      -0.541017       -14.7218
  17   2.0000      -0.539510       -14.6808
  18   2.0000      -0.538155       -14.6440
  19   2.0000      -0.530692       -14.4409
  20   2.0000      -0.523863       -14.2550
  21   2.0000      -0.519778       -14.1439
  22   2.0000      -0.518301       -14.1037
  23   2.0000      -0.514901       -14.0112
  24   2.0000      -0.460820       -12.5395
  25   2.0000      -0.433195       -11.7878
  26   2.0000      -0.412048       -11.2124
  27   2.0000      -0.410138       -11.1604
  28   2.0000      -0.392294       -10.6749
  29   2.0000      -0.391748       -10.6600
  30   2.0000      -0.380373       -10.3505
  31   2.0000      -0.357203        -9.7200
  32   2.0000      -0.328376        -8.9356
  33   2.0000      -0.328154        -8.9295
  34   2.0000      -0.324215        -8.8223
  35   2.0000      -0.322867        -8.7857
  36   2.0000      -0.318308        -8.6616
  37   2.0000      -0.315775        -8.5927
  38   2.0000      -0.314995        -8.5715
  39   2.0000      -0.314758        -8.5650
  40   0.0000       0.018631         0.5070
  41   0.0000       0.060048         1.6340
  42   0.0000       0.060290         1.6406
  43   0.0000       0.062198         1.6925
  44   0.0000       0.123187         3.3521

MULLIKEN ATOMIC CHARGES
-----------------------
   0 O :   -0.752081
   1 H :    0.369854
   2 H :    0.371119
   3 O :   -0.741535
   4 H :    0.365615
   5 H :    0.386065
   6 O :   -0.749561
   7 H :    0.372501
   8 H :    0.371311
   9 O :   -0.752296
  10 H :    0.383765
  11 H :    0.374449
  12 O :   -0.750289
  13 H :    0.370298
  14 H :    0.372108
  15 O :   -0.747022
  16 H :    0.383940
  17 H :    0.372112
  18 O :   -0.755784
  19 H :    0.373563
  20 H :    0.372880
  21 O :   -0.744522
  22 H :    0.386740
  23 H :    0.366770
Sum of atomic charges:   -0.0000000

LOEWDIN ATOMIC CHARGES
----------------------
   0 O :   -0.321551
   1 H :    0.140578
   2 H :    0.137955
   3 O :   -0.277261
   4 H :    0.145902
   5 H :    0.184540
   6 O :   -0.328425
   7 H :    0.140967
   8 H :    0.141750
   9 O :   -0.285394
  10 H :    0.181867
  11 H :    0.140253
  12 O :   -0.317106
  13 H :    0.138676
  14 H :    0.138936
  15 O :   -0.283298
  16 H :    0.182976
  17 H :    0.142520
  18 O :   -0.330241
  19 H :    0.138181
  20 H :    0.138434
  21 O :   -0.279624
  22 H :    0.184279
  23 H :    0.145085

  Mayer bond orders larger than 0.1
B(  0-O ,  1-H ) :   0.8110 B(  0-O ,  2-H ) :   0.8008 B(  0-O , 17-H ) :   0.1522
B(  1-H , 21-O ) :   0.1015 B(  2-H ,  9-O ) :   0.1144 B(  3-O ,  4-H ) :   0.7610
B(  3-O ,  5-H ) :   0.8519 B(  3-O , 14-H ) :   0.1101 B(  4-H , 18-O ) :   0.1518
B(  6-O ,  7-H ) :   0.8108 B(  6-O ,  8-H ) :   0.8131 B(  6-O , 23-H ) :   0.1506
B(  7-H , 15-O ) :   0.1005 B(  9-O , 10-H ) :   0.8527 B(  9-O , 11-H ) :   0.7447
B(  9-O , 19-H ) :   0.1049 B( 11-H , 12-O ) :   0.1603 B( 12-O , 13-H ) :   0.8031
B( 12-O , 14-H ) :   0.8030 B( 13-H , 15-O ) :   0.1122 B( 15-O , 16-H ) :   0.8529
B( 15-O , 17-H ) :   0.7539 B( 18-O , 19-H ) :   0.8059 B( 18-O , 20-H ) :   0.8084
B( 20-H , 21-O ) :   0.1021 B( 21-O , 22-H ) :   0.8514 B( 21-O , 23-H ) :   0.7613

Dispersion correction           -0.025351566
FINAL SINGLE POINT ENERGY      -611.583961841757

DIPOLE MOMENT
-------------
                                X             Y             Z
Electronic contribution:     -0.02769      -0.01905      -0.00442
Nuclear contribution   :     -0.05806       0.04085       0.05094
                        -----------------------------------------
Total Dipole Moment    :     -0.08575       0.02181       0.04652
                        -----------------------------------------
Magnitude (a.u.)       :      0.09996
Magnitude (Debye)      :      0.25409

                             ****ORCA TERMINATED NORMALLY****
TOTAL RUN TIME: 0 days 0 hours 1 minutes 5 seconds 589 msec
