                         Program Version 3.0.3 - RELEASE   -
|  1> ! wB97X-D3 MA-Def2-TZVP def2-TZVP/J RIJCOSX TightSCF Grid4
|  2>
|  3> %pal nprocs 1 end
|  4>
|  5> %scf
|  6>         maxiter 400
|  7> end
|  8>
|  9> %cosmo
| 10>         SMD true
| 11>         solvent "WATER"
| 12> end
| 13>
| 14> * xyz  0  1
| 15> O  -0.081123	2.278696	-0.336208
| 16> H  0.166909	1.709215	-1.101791
| 17> H  0.531144	1.985970	0.380442
| 18> O  0.262665	-2.194642	0.329439
| 19> H  1.096394	-1.714854	0.055475
| 20> H  0.520137	-3.121580	0.450077
| 21> O  -1.590289	-1.227129	-1.456661
| 22> H  -1.971665	-0.542475	-0.858885
| 23> H  -1.005524	-1.743201	-0.853628
| 24> O  1.440266	1.064030	1.550878
| 25> H  1.893183	1.445316	2.317870
| 26> H  0.680183	0.513552	1.913184
| 27> O  -0.613208	-0.434214	2.180645
| 28> H  -1.305976	-0.000625	1.627449
| 29> H  -0.338219	-1.208365	1.632425
| 30> O  -2.164356	0.782233	0.318547
| 31> H  -2.984852	1.286647	0.429085
| 32> H  -1.459255	1.450710	0.072411
| 33> O  2.302760	-0.612477	-0.412329
| 34> H  2.154632	0.028836	0.321892
| 35> H  1.768457	-0.249261	-1.157232
| 36> O  0.466534	0.327143	-2.194713
| 37> H  0.555559	0.443564	-3.152627
| 38> H  -0.324357	-0.267090	-2.055747
| 39> **                         ****END OF INPUT****

CARTESIAN COORDINATES (ANGSTROEM)
---------------------------------
  O     -0.081123    2.278696   -0.336208
  H      0.166909    1.709215   -1.101791
  H      0.531144    1.985970    0.380442
  O      0.262665   -2.194642    0.329439
  H      1.096394   -1.714854    0.055475
  H      0.520137   -3.121580    0.450077
  O     -1.590289   -1.227129   -1.456661
  H     -1.971665   -0.542475   -0.858885
  H     -1.005524   -1.743201   -0.853628
  O      1.440266    1.064030    1.550878
  H      1.893183    1.445316    2.317870
  H      0.680183    0.513552    1.913184
  O     -0.613208   -0.434214    2.180645
  H     -1.305976   -0.000625    1.627449
  H     -0.338219   -1.208365    1.632425
  O     -2.164356    0.782233    0.318547
  H     -2.984852    1.286647    0.429085
  H     -1.459255    1.450710    0.072411
  O      2.302760   -0.612477   -0.412329
  H      2.154632    0.028836    0.321892
  H      1.768457   -0.249261   -1.157232
  O      0.466534    0.327143   -2.194713
  H      0.555559    0.443564   -3.152627
  H     -0.324357   -0.267090   -2.055747

 Total Charge           Charge          ....    0
 Multiplicity           Mult            ....    1
 Number of Electrons    NEL             ....   80
 Basis Dimension        Dim             ....  376

ORBITAL ENERGIES
----------------

  NO   OCC          E(Eh)            E(eV)
   0   2.0000     -19.242326      -523.6103
   1   2.0000     -19.241957      -523.6003
   2   2.0000     -19.239752      -523.5403
   3   2.0000     -19.238338      -523.5018
   4   2.0000     -19.228662      -523.2385
   5   2.0000     -19.228612      -523.2371
   6   2.0000     -19.227420      -523.2047
   7   2.0000     -19.227235      -523.1997
   8   2.0000      -1.149341       -31.2752
   9   2.0000      -1.134574       -30.8733
  10   2.0000      -1.134467       -30.8704
  11   2.0000      -1.129786       -30.7430
  12   2.0000      -1.117191       -30.4003
  13   2.0000      -1.112329       -30.2680
  14   2.0000      -1.112134       -30.2627
  15   2.0000      -1.098783       -29.8994
  16   2.0000      -0.646982       -17.6053
  17   2.0000      -0.645413       -17.5626
  18   2.0000      -0.644087       -17.5265
  19   2.0000      -0.635208       -17.2849
  20   2.0000      -0.630627       -17.1602
  21   2.0000      -0.625744       -17.0274
  22   2.0000      -0.624096       -16.9825
  23   2.0000      -0.620473       -16.8839
  24   2.0000      -0.569288       -15.4911
  25   2.0000      -0.539547       -14.6818
  26   2.0000      -0.516481       -14.0542
  27   2.0000      -0.514239       -13.9932
  28   2.0000      -0.495641       -13.4871
  29   2.0000      -0.495031       -13.4705
  30   2.0000      -0.482682       -13.1344
  31   2.0000      -0.458757       -12.4834
  32   2.0000      -0.429784       -11.6950
  33   2.0000      -0.429347       -11.6831
  34   2.0000      -0.425261       -11.5719
  35   2.0000      -0.424005       -11.5377
  36   2.0000      -0.419714       -11.4210
  37   2.0000      -0.417027       -11.3479
  38   2.0000      -0.416201       -11.3254
  39   2.0000      -0.415963       -11.3189
  40   0.0000       0.066809         1.8180
  41   0.0000       0.095149         2.5891
  42   0.0000       0.095295         2.5931
  43   0.0000       0.099550         2.7089
  44   0.0000       0.121487         3.3058

MULLIKEN ATOMIC CHARGES
-----------------------
   0 O :   -0.810092
   1 H :    0.411370
   2 H :    0.421845
   3 O :   -0.864160
   4 H :    0.411183
   5 H :    0.417097
   6 O :   -0.791007
   7 H :    0.421823
   8 H :    0.414457
   9 O :   -0.875455
  10 H :    0.416166
  11 H :    0.429711
  12 O :   -0.815745
  13 H :    0.419864
  14 H :    0.416272
  15 O :   -0.864055
  16 H :    0.415641
  17 H :    0.421387
  18 O :   -0.801717
  19 H :    0.426377
  20 H :    0.416939
  21 O :   -0.872142
  22 H :    0.418159
  23 H :    0.416081
Sum of atomic charges:   -0.0000000

LOEWDIN ATOMIC CHARGES
----------------------
   0 O :   -0.408259
   1 H :    0.193083
   2 H :    0.190656
   3 O :   -0.377449
   4 H :    0.196402
   5 H :    0.216053
   6 O :   -0.414345
   7 H :    0.193268
   8 H :    0.193788
   9 O :   -0.385918
  10 H :    0.213822
  11 H :    0.190191
  12 O :   -0.404691
  13 H :    0.191488
  14 H :    0.191336
  15 O :   -0.383223
  16 H :    0.214697
  17 H :    0.192437
  18 O :   -0.416493
  19 H :    0.191016
  20 H :    0.190792
  21 O :   -0.379691
  22 H :    0.215701
  23 H :    0.195337

  Mayer bond orders larger than 0.1
B(  0-O ,  1-H ) :   0.8253 B(  0-O ,  2-H ) :   0.8120 B(  3-O ,  4-H ) :   0.7771
B(  3-O ,  5-H ) :   0.8325 B(  6-O ,  7-H ) :   0.8205 B(  6-O ,  8-H ) :   0.8245
B(  9-O , 10-H ) :   0.8315 B(  9-O , 11-H ) :   0.7627 B( 12-O , 13-H ) :   0.8142
B( 12-O , 14-H ) :   0.8155 B( 15-O , 16-H ) :   0.8328 B( 15-O , 17-H ) :   0.7719
B( 18-O , 19-H ) :   0.8150 B( 18-O , 20-H ) :   0.8214 B( 21-O , 22-H ) :   0.8310
B( 21-O , 23-H ) :   0.7765

Dispersion correction           -0.012331715
FINAL SINGLE POINT ENERGY      -611.680678152070

DIPOLE MOMENT
-------------
                                X             Y             Z
Electronic contribution:     -0.02943      -0.01622      -0.00076
Nuclear contribution   :     -0.05806       0.04085       0.05094
                        -----------------------------------------
Total Dipole Moment    :     -0.08749       0.02464       0.05019
                        -----------------------------------------
Magnitude (a.u.)       :      0.10383
Magnitude (Debye)      :      0.26390

                             ****ORCA TERMINATED NORMALLY****
TOTAL RUN TIME: 0 days 0 hours 6 minutes 2 seconds 60 msec
