                         Program Version 3.0.3 - RELEASE   -
|  1> ! B3LYP Def2-TZVP def2-TZVP/J RIJCOSX TightSCF Grid4 D3BJ
|  2>
|  3> %pal nprocs 12 end
|  4>
|  5> %scf
|  6>         maxiter 400
|  7> end
|  8>
|  9> * xyz  0  1
| 10> O  -0.209608	2.285122	-0.370503
| 11> H  0.106562	1.759431	-1.160584
| 12> H  0.456319	2.032255	0.331890
| 13> O  0.222153	-2.230562	0.354191
| 14> H  1.075969	-1.696493	0.056429
| 15> H  0.506740	-3.155621	0.466550
| 16> O  -1.418812	-1.102467	-1.478223
| 17> H  -1.874780	-0.472971	-0.848067
| 18> H  -0.919583	-1.702411	-0.853486
| 19> O  1.373272	1.070446	1.454861
| 20> H  1.854469	1.450127	2.212041
| 21> H  0.609911	0.473217	1.859102
| 22> O  -0.541535	-0.427200	2.219434
| 23> H  -1.276250	-0.013026	1.682072
| 24> H  -0.316271	-1.238481	1.678743
| 25> O  -2.113687	0.752463	0.359076
| 26> H  -2.947653	1.243745	0.470721
| 27> H  -1.393373	1.454767	0.060570
| 28> O  2.168796	-0.754400	-0.372890
| 29> H  2.084532	-0.047828	0.330131
| 30> H  1.735260	-0.321266	-1.163246
| 31> O  0.521246	0.402432	-2.171659
| 32> H  0.590337	0.467773	-3.141470
| 33> H  -0.294014	-0.229051	-1.975684
| 34> **                         ****END OF INPUT****

CARTESIAN COORDINATES (ANGSTROEM)
---------------------------------
  O     -0.209608    2.285122   -0.370503
  H      0.106562    1.759431   -1.160584
  H      0.456319    2.032255    0.331890
  O      0.222153   -2.230562    0.354191
  H      1.075969   -1.696493    0.056429
  H      0.506740   -3.155621    0.466550
  O     -1.418812   -1.102467   -1.478223
  H     -1.874780   -0.472971   -0.848067
  H     -0.919583   -1.702411   -0.853486
  O      1.373272    1.070446    1.454861
  H      1.854469    1.450127    2.212041
  H      0.609911    0.473217    1.859102
  O     -0.541535   -0.427200    2.219434
  H     -1.276250   -0.013026    1.682072
  H     -0.316271   -1.238481    1.678743
  O     -2.113687    0.752463    0.359076
  H     -2.947653    1.243745    0.470721
  H     -1.393373    1.454767    0.060570
  O      2.168796   -0.754400   -0.372890
  H      2.084532   -0.047828    0.330131
  H      1.735260   -0.321266   -1.163246
  O      0.521246    0.402432   -2.171659
  H      0.590337    0.467773   -3.141470
  H     -0.294014   -0.229051   -1.975684

 Total Charge           Charge          ....    0
 Multiplicity           Mult            ....    1
 Number of Electrons    NEL             ....   80
 Basis Dimension        Dim             ....  344

ORBITAL ENERGIES
----------------

  NO   OCC          E(Eh)            E(eV)
   0   2.0000     -19.136947      -520.7428
   1   2.0000     -19.136896      -520.7414
   2   2.0000     -19.136622      -520.7340
   3   2.0000     -19.136252      -520.7239
   4   2.0000     -19.120234      -520.2880
   5   2.0000     -19.120009      -520.2819
   6   2.0000     -19.120003      -520.2817
   7   2.0000     -19.119678      -520.2729
   8   2.0000      -1.034647       -28.1542
   9   2.0000      -1.019285       -27.7362
  10   2.0000      -1.019149       -27.7325
  11   2.0000      -1.010854       -27.5067
  12   2.0000      -0.999905       -27.2088
  13   2.0000      -0.991380       -26.9768
  14   2.0000      -0.991180       -26.9714
  15   2.0000      -0.976777       -26.5795
  16   2.0000      -0.545367       -14.8402
  17   2.0000      -0.545266       -14.8375
  18   2.0000      -0.543090       -14.7782
  19   2.0000      -0.537712       -14.6319
  20   2.0000      -0.523777       -14.2527
  21   2.0000      -0.514270       -13.9940
  22   2.0000      -0.514206       -13.9923
  23   2.0000      -0.513787       -13.9808
  24   2.0000      -0.472914       -12.8686
  25   2.0000      -0.430905       -11.7255
  26   2.0000      -0.420977       -11.4554
  27   2.0000      -0.420867       -11.4524
  28   2.0000      -0.392573       -10.6824
  29   2.0000      -0.392363       -10.6767
  30   2.0000      -0.386935       -10.5290
  31   2.0000      -0.351633        -9.5684
  32   2.0000      -0.330252        -8.9866
  33   2.0000      -0.329993        -8.9796
  34   2.0000      -0.329858        -8.9759
  35   2.0000      -0.325868        -8.8673
  36   2.0000      -0.314642        -8.5618
  37   2.0000      -0.312538        -8.5046
  38   2.0000      -0.312188        -8.4951
  39   2.0000      -0.311984        -8.4895
  40   0.0000       0.002722         0.0741
  41   0.0000       0.034017         0.9257
  42   0.0000       0.034029         0.9260
  43   0.0000       0.035471         0.9652
  44   0.0000       0.113560         3.0901

MULLIKEN ATOMIC CHARGES
-----------------------
   0 O :   -0.675478
   1 H :    0.361481
   2 H :    0.361779
   3 O :   -0.743631
   4 H :    0.360449
   5 H :    0.333064
   6 O :   -0.675258
   7 H :    0.362352
   8 H :    0.362294
   9 O :   -0.743870
  10 H :    0.333225
  11 H :    0.361740
  12 O :   -0.674563
  13 H :    0.361514
  14 H :    0.361786
  15 O :   -0.743652
  16 H :    0.333336
  17 H :    0.362251
  18 O :   -0.674997
  19 H :    0.362216
  20 H :    0.362659
  21 O :   -0.743692
  22 H :    0.333673
  23 H :    0.361325
Sum of atomic charges:   -0.0000000

LOEWDIN ATOMIC CHARGES
----------------------
   0 O :   -0.274979
   1 H :    0.145898
   2 H :    0.145809
   3 O :   -0.318494
   4 H :    0.140757
   5 H :    0.158909
   6 O :   -0.274412
   7 H :    0.145850
   8 H :    0.145979
   9 O :   -0.317417
  10 H :    0.158877
  11 H :    0.140954
  12 O :   -0.273905
  13 H :    0.145904
  14 H :    0.146090
  15 O :   -0.317019
  16 H :    0.159096
  17 H :    0.141315
  18 O :   -0.273766
  19 H :    0.145644
  20 H :    0.145595
  21 O :   -0.317150
  22 H :    0.159166
  23 H :    0.141297

  Mayer bond orders larger than 0.1
B(  0-O ,  1-H ) :   0.8115 B(  0-O ,  2-H ) :   0.8111 B(  0-O , 17-H ) :   0.2353
B(  1-H , 21-O ) :   0.1083 B(  2-H ,  9-O ) :   0.1085 B(  3-O ,  4-H ) :   0.6861
B(  3-O ,  5-H ) :   0.8870 B(  3-O ,  8-H ) :   0.1067 B(  3-O , 14-H ) :   0.1091
B(  4-H , 18-O ) :   0.2380 B(  6-O ,  7-H ) :   0.8107 B(  6-O ,  8-H ) :   0.8119
B(  6-O , 23-H ) :   0.2363 B(  7-H , 15-O ) :   0.1081 B(  9-O , 10-H ) :   0.8867
B(  9-O , 11-H ) :   0.6863 B(  9-O , 19-H ) :   0.1082 B( 11-H , 12-O ) :   0.2365
B( 12-O , 13-H ) :   0.8118 B( 12-O , 14-H ) :   0.8106 B( 13-H , 15-O ) :   0.1078
B( 15-O , 16-H ) :   0.8866 B( 15-O , 17-H ) :   0.6871 B( 18-O , 19-H ) :   0.8108
B( 18-O , 20-H ) :   0.8107 B( 20-H , 21-O ) :   0.1079 B( 21-O , 22-H ) :   0.8864
B( 21-O , 23-H ) :   0.6870

Dispersion correction           -0.026085779
FINAL SINGLE POINT ENERGY      -611.545353120473

DIPOLE MOMENT
-------------
                                X             Y             Z
Electronic contribution:     -0.00183       0.00111      -0.00407
Nuclear contribution   :     -0.00456       0.01040       0.01426
                        -----------------------------------------
Total Dipole Moment    :     -0.00638       0.01152       0.01020
                        -----------------------------------------
Magnitude (a.u.)       :      0.01665
Magnitude (Debye)      :      0.04233

                             ****ORCA TERMINATED NORMALLY****
TOTAL RUN TIME: 0 days 0 hours 1 minutes 5 seconds 9 msec
