                         Program Version 4.2.0 -  RELEASE  -
|  1> # 12h2o.su.etal.mol2,3,5,6,7,9,10,11
|  2> ! MP2 def2-TZVP EnGrad TightSCF
|  3>
|  4> %pal
|  5>     nprocs 6
|  6> end
|  7>
|  8> %maxcore 8000
|  9>
| 10> %scf
| 11>     ConvForced true
| 12> end
| 13>
| 14> *xyz 0 1
| 15> O   0.923410000  -1.794470000  -2.768350000
| 16> H   1.359750000  -2.338250000  -3.430940000
| 17> H   1.303000000  -0.879480000  -2.865760000
| 18> O  -1.752130000  -0.741530000  -2.896280000
| 19> H  -2.036450000  -0.920500000  -1.984040000
| 20> H  -0.921210000  -1.242140000  -2.984230000
| 21> O   0.885520000  -1.737840000   0.052730000
| 22> H   1.284090000  -0.839590000   0.017130000
| 23> H   1.032320000  -2.090180000  -0.841890000
| 24> O   1.737840000   0.885520000  -0.052730000
| 25> H   2.090180000   1.032320000   0.841890000
| 26> H   0.839590000   1.284090000  -0.017130000
| 27> O  -1.737840000  -0.885520000  -0.052730000
| 28> H  -2.090180000  -1.032320000   0.841890000
| 29> H  -0.839590000  -1.284090000  -0.017130000
| 30> O   0.741530000  -1.752130000   2.896280000
| 31> H   0.920500000  -2.036450000   1.984040000
| 32> H   1.242140000  -0.921210000   2.984230000
| 33> O  -0.923410000   1.794470000  -2.768350000
| 34> H  -1.359750000   2.338250000  -3.430940000
| 35> H  -1.303000000   0.879480000  -2.865760000
| 36> O  -0.741530000   1.752130000   2.896280000
| 37> H  -0.920500000   2.036450000   1.984040000
| 38> H  -1.242140000   0.921210000   2.984230000
| 39> *
| 40>
| 41>                          ****END OF INPUT****

CARTESIAN COORDINATES (ANGSTROEM)
---------------------------------
  O      0.923410   -1.794470   -2.768350
  H      1.359750   -2.338250   -3.430940
  H      1.303000   -0.879480   -2.865760
  O     -1.752130   -0.741530   -2.896280
  H     -2.036450   -0.920500   -1.984040
  H     -0.921210   -1.242140   -2.984230
  O      0.885520   -1.737840    0.052730
  H      1.284090   -0.839590    0.017130
  H      1.032320   -2.090180   -0.841890
  O      1.737840    0.885520   -0.052730
  H      2.090180    1.032320    0.841890
  H      0.839590    1.284090   -0.017130
  O     -1.737840   -0.885520   -0.052730
  H     -2.090180   -1.032320    0.841890
  H     -0.839590   -1.284090   -0.017130
  O      0.741530   -1.752130    2.896280
  H      0.920500   -2.036450    1.984040
  H      1.242140   -0.921210    2.984230
  O     -0.923410    1.794470   -2.768350
  H     -1.359750    2.338250   -3.430940
  H     -1.303000    0.879480   -2.865760
  O     -0.741530    1.752130    2.896280
  H     -0.920500    2.036450    1.984040
  H     -1.242140    0.921210    2.984230

 Total Charge           Charge          ....    0
 Multiplicity           Mult            ....    1
 Number of Electrons    NEL             ....   80
 Basis Dimension        Dim             ....  344

ORBITAL ENERGIES
----------------

  NO   OCC          E(Eh)            E(eV)
   0   2.0000     -20.621991      -561.1529
   1   2.0000     -20.607023      -560.7456
   2   2.0000     -20.572865      -559.8161
   3   2.0000     -20.572222      -559.7986
   4   2.0000     -20.557692      -559.4032
   5   2.0000     -20.546842      -559.1080
   6   2.0000     -20.545275      -559.0653
   7   2.0000     -20.516635      -558.2860
   8   2.0000      -1.402818       -38.1726
   9   2.0000      -1.388890       -37.7936
  10   2.0000      -1.363535       -37.1037
  11   2.0000      -1.351783       -36.7839
  12   2.0000      -1.344290       -36.5800
  13   2.0000      -1.334204       -36.3055
  14   2.0000      -1.326640       -36.0997
  15   2.0000      -1.297676       -35.3116
  16   2.0000      -0.767961       -20.8973
  17   2.0000      -0.744714       -20.2647
  18   2.0000      -0.737103       -20.0576
  19   2.0000      -0.715937       -19.4816
  20   2.0000      -0.714319       -19.4376
  21   2.0000      -0.705070       -19.1859
  22   2.0000      -0.695942       -18.9376
  23   2.0000      -0.683660       -18.6033
  24   2.0000      -0.651302       -17.7228
  25   2.0000      -0.629335       -17.1251
  26   2.0000      -0.607332       -16.5263
  27   2.0000      -0.605318       -16.4715
  28   2.0000      -0.589624       -16.0445
  29   2.0000      -0.575515       -15.6606
  30   2.0000      -0.565102       -15.3772
  31   2.0000      -0.555246       -15.1090
  32   2.0000      -0.540478       -14.7072
  33   2.0000      -0.536409       -14.5964
  34   2.0000      -0.518371       -14.1056
  35   2.0000      -0.517037       -14.0693
  36   2.0000      -0.506596       -13.7852
  37   2.0000      -0.491233       -13.3671
  38   2.0000      -0.486439       -13.2367
  39   2.0000      -0.467628       -12.7248
  40   0.0000       0.078970         2.1489
  41   0.0000       0.102040         2.7767
  42   0.0000       0.130503         3.5512
  43   0.0000       0.148575         4.0429
  44   0.0000       0.164207         4.4683

MULLIKEN ATOMIC CHARGES
-----------------------
   0 O :   -0.727003
   1 H :    0.368379
   2 H :    0.385495
   3 O :   -0.715917
   4 H :    0.387372
   5 H :    0.357326
   6 O :   -0.747280
   7 H :    0.355704
   8 H :    0.382397
   9 O :   -0.689412
  10 H :    0.357634
  11 H :    0.373397
  12 O :   -0.735205
  13 H :    0.339897
  14 H :    0.362268
  15 O :   -0.698096
  16 H :    0.373878
  17 H :    0.320332
  18 O :   -0.748060
  19 H :    0.325128
  20 H :    0.370701
  21 O :   -0.680948
  22 H :    0.336234
  23 H :    0.345779
Sum of atomic charges:   -0.0000000

LOEWDIN ATOMIC CHARGES
----------------------
   0 O :   -0.288687
   1 H :    0.170149
   2 H :    0.197324
   3 O :   -0.287288
   4 H :    0.158343
   5 H :    0.145682
   6 O :   -0.300154
   7 H :    0.140895
   8 H :    0.152183
   9 O :   -0.286211
  10 H :    0.172029
  11 H :    0.183460
  12 O :   -0.341009
  13 H :    0.162262
  14 H :    0.142726
  15 O :   -0.338671
  16 H :    0.151160
  17 H :    0.155681
  18 O :   -0.380873
  19 H :    0.148544
  20 H :    0.141771
  21 O :   -0.329231
  22 H :    0.162213
  23 H :    0.167702

  Mayer bond orders larger than 0.100000
B(  0-O ,  1-H ) :   0.8299 B(  0-O ,  2-H ) :   0.8087 B(  3-O ,  4-H ) :   0.8000
B(  3-O ,  5-H ) :   0.8197 B(  3-O , 20-H ) :   0.1060 B(  6-O ,  7-H ) :   0.7691
B(  6-O ,  8-H ) :   0.8036 B(  9-O , 10-H ) :   0.8359 B(  9-O , 11-H ) :   0.8173
B( 12-O , 13-H ) :   0.8472 B( 12-O , 14-H ) :   0.7711 B( 15-O , 16-H ) :   0.8156
B( 15-O , 17-H ) :   0.8589 B( 18-O , 19-H ) :   0.8603 B( 18-O , 20-H ) :   0.7649
B( 21-O , 22-H ) :   0.8512 B( 21-O , 23-H ) :   0.8433

MP2 TOTAL ENERGY:     -610.573327864 Eh
FINAL SINGLE POINT ENERGY      -610.573327864068

DIPOLE MOMENT
-------------
                                X             Y             Z
Electronic contribution:      0.20750      -0.22423       0.01245
Nuclear contribution   :      0.90891      -0.11126      -1.17702
                        -----------------------------------------
Total Dipole Moment    :      1.11641      -0.33549      -1.16457
                        -----------------------------------------
Magnitude (a.u.)       :      1.64777
Magnitude (Debye)      :      4.18831

Rotational constants in cm-1:     0.032263     0.018544     0.015812
Rotational constants in MHz :   967.235169   555.945284   474.044010

                             ****ORCA TERMINATED NORMALLY****
TOTAL RUN TIME: 0 days 0 hours 2 minutes 58 seconds 894 msec
