                         Program Version 4.2.0 -  RELEASE  -
|  1> # 12mecn.remya.etal.2.mol3,4,9
|  2> ! MP2 def2-TZVP EnGrad TightSCF
|  3>
|  4> %pal
|  5>     nprocs 6
|  6> end
|  7>
|  8> %maxcore 8000
|  9>
| 10> %scf
| 11>     ConvForced true
| 12> end
| 13>
| 14> *xyz 0 1
| 15> C  -5.181310000   2.853865000  -1.626100000
| 16> H  -5.488260000   3.811434000  -2.053310000
| 17> H  -5.857590000   2.068112000  -1.968630000
| 18> H  -4.170750000   2.611402000  -1.966640000
| 19> C  -5.187260000   2.919160000  -0.181450000
| 20> N  -5.181700000   2.970641000   0.983640000
| 21> C  -1.509690000  -0.693960000  -1.610140000
| 22> H  -1.327010000  -1.692700000  -2.017370000
| 23> H  -0.742170000  -0.000650000  -1.964400000
| 24> H  -2.491920000  -0.334310000  -1.929350000
| 25> C  -1.473570000  -0.748120000  -0.167200000
| 26> N  -1.447490000  -0.793720000   0.998938000
| 27> C   0.923766000   4.000693000  -1.575910000
| 28> H   0.011949000   4.478423000  -1.939550000
| 29> H   0.947903000   2.966558000  -1.929960000
| 30> H   1.805950000   4.519548000  -1.956520000
| 31> C   0.942834000   3.994846000  -0.131200000
| 32> N   0.960035000   3.982544000   1.035639000
| 33> *
| 34>
| 35>                          ****END OF INPUT****

CARTESIAN COORDINATES (ANGSTROEM)
---------------------------------
  C     -5.181310    2.853865   -1.626100
  H     -5.488260    3.811434   -2.053310
  H     -5.857590    2.068112   -1.968630
  H     -4.170750    2.611402   -1.966640
  C     -5.187260    2.919160   -0.181450
  N     -5.181700    2.970641    0.983640
  C     -1.509690   -0.693960   -1.610140
  H     -1.327010   -1.692700   -2.017370
  H     -0.742170   -0.000650   -1.964400
  H     -2.491920   -0.334310   -1.929350
  C     -1.473570   -0.748120   -0.167200
  N     -1.447490   -0.793720    0.998938
  C      0.923766    4.000693   -1.575910
  H      0.011949    4.478423   -1.939550
  H      0.947903    2.966558   -1.929960
  H      1.805950    4.519548   -1.956520
  C      0.942834    3.994846   -0.131200
  N      0.960035    3.982544    1.035639

 Total Charge           Charge          ....    0
 Multiplicity           Mult            ....    1
 Number of Electrons    NEL             ....   66
 Basis Dimension        Dim             ....  333

ORBITAL ENERGIES
----------------

  NO   OCC          E(Eh)            E(eV)
   0   2.0000     -15.574839      -423.8129
   1   2.0000     -15.574364      -423.8000
   2   2.0000     -15.574044      -423.7913
   3   2.0000     -11.292461      -307.2835
   4   2.0000     -11.291385      -307.2542
   5   2.0000     -11.290332      -307.2255
   6   2.0000     -11.280333      -306.9535
   7   2.0000     -11.279569      -306.9327
   8   2.0000     -11.279534      -306.9317
   9   2.0000      -1.215543       -33.0766
  10   2.0000      -1.214333       -33.0437
  11   2.0000      -1.214305       -33.0429
  12   2.0000      -1.049880       -28.5687
  13   2.0000      -1.048863       -28.5410
  14   2.0000      -1.048570       -28.5330
  15   2.0000      -0.705903       -19.2086
  16   2.0000      -0.704443       -19.1689
  17   2.0000      -0.704176       -19.1616
  18   2.0000      -0.640406       -17.4263
  19   2.0000      -0.639396       -17.3989
  20   2.0000      -0.639045       -17.3893
  21   2.0000      -0.637736       -17.3537
  22   2.0000      -0.636243       -17.3131
  23   2.0000      -0.635243       -17.2858
  24   2.0000      -0.556058       -15.1311
  25   2.0000      -0.555137       -15.1061
  26   2.0000      -0.554972       -15.1016
  27   2.0000      -0.459206       -12.4956
  28   2.0000      -0.458741       -12.4830
  29   2.0000      -0.458111       -12.4658
  30   2.0000      -0.457902       -12.4602
  31   2.0000      -0.457265       -12.4428
  32   2.0000      -0.456782       -12.4297
  33   0.0000       0.076717         2.0876
  34   0.0000       0.111017         3.0209
  35   0.0000       0.129107         3.5132
  36   0.0000       0.151906         4.1336
  37   0.0000       0.161862         4.4045

MULLIKEN ATOMIC CHARGES
-----------------------
   0 C :   -0.286508
   1 H :    0.176176
   2 H :    0.173842
   3 H :    0.158088
   4 C :   -0.143687
   5 N :   -0.077964
   6 C :   -0.279180
   7 H :    0.177115
   8 H :    0.160865
   9 H :    0.162853
  10 C :   -0.143280
  11 N :   -0.078316
  12 C :   -0.281783
  13 H :    0.169198
  14 H :    0.160475
  15 H :    0.175745
  16 C :   -0.143728
  17 N :   -0.079910
Sum of atomic charges:   -0.0000000

LOEWDIN ATOMIC CHARGES
----------------------
   0 C :   -0.286770
   1 H :    0.151610
   2 H :    0.151203
   3 H :    0.147676
   4 C :   -0.220910
   5 N :    0.057162
   6 C :   -0.286294
   7 H :    0.153354
   8 H :    0.148313
   9 H :    0.148982
  10 C :   -0.222579
  11 N :    0.058255
  12 C :   -0.286026
  13 H :    0.149772
  14 H :    0.148878
  15 H :    0.152429
  16 C :   -0.221346
  17 N :    0.056289

  Mayer bond orders larger than 0.100000
B(  0-C ,  1-H ) :   0.9161 B(  0-C ,  2-H ) :   0.9180 B(  0-C ,  3-H ) :   0.9211
B(  0-C ,  4-C ) :   0.9010 B(  4-C ,  5-N ) :   2.8274 B(  6-C ,  7-H ) :   0.9166
B(  6-C ,  8-H ) :   0.9204 B(  6-C ,  9-H ) :   0.9202 B(  6-C , 10-C ) :   0.8993
B( 10-C , 11-N ) :   2.8243 B( 12-C , 13-H ) :   0.9183 B( 12-C , 14-H ) :   0.9206
B( 12-C , 15-H ) :   0.9167 B( 12-C , 16-C ) :   0.9005 B( 16-C , 17-N ) :   2.8269

MP2 TOTAL ENERGY:     -397.445195270 Eh
FINAL SINGLE POINT ENERGY      -397.445195270293

DIPOLE MOMENT
-------------
                                X             Y             Z
Electronic contribution:      0.08508       0.04717       9.56033
Nuclear contribution   :     -0.14331      -0.05018     -13.92368
                        -----------------------------------------
Total Dipole Moment    :     -0.05823      -0.00301      -4.36335
                        -----------------------------------------
Magnitude (a.u.)       :      4.36374
Magnitude (Debye)      :     11.09175

Rotational constants in cm-1:     0.025702     0.017591     0.013003
Rotational constants in MHz :   770.539374   527.375168   389.820029

                             ****ORCA TERMINATED NORMALLY****
TOTAL RUN TIME: 0 days 0 hours 4 minutes 29 seconds 325 msec
