                         Program Version 4.2.0 -  RELEASE  -
|  1> # 12meoh.boyd.etal.mol1,2,6
|  2> ! MP2 def2-TZVP EnGrad TightSCF
|  3>
|  4> %pal
|  5>     nprocs 6
|  6> end
|  7>
|  8> %maxcore 8000
|  9>
| 10> %scf
| 11>     ConvForced true
| 12> end
| 13>
| 14> *xyz 0 1
| 15> O   0.666045193  -2.600503172   0.138317521
| 16> H  -0.227115049  -2.712051982  -0.281868004
| 17> C   0.490021232  -1.851247678   1.341189459
| 18> H   1.466500502  -1.466176022   1.645844415
| 19> H   0.097564527  -2.488364683   2.146902740
| 20> H  -0.187588112  -1.000787499   1.200739571
| 21> O  -3.839777402   2.233595098   0.660436763
| 22> H  -2.958345897   1.907036203   0.973588449
| 23> C  -3.600368059   3.168790682  -0.390480452
| 24> H  -4.551709193   3.344148967  -0.901254863
| 25> H  -2.868237594   2.789240199  -1.113617525
| 26> H  -3.243594915   4.128998607   0.009549480
| 27> O   2.622209273  -1.703002590  -1.445859723
| 28> H   1.828551432  -1.986513781  -0.909754968
| 29> C   2.781117675  -2.615822239  -2.525472890
| 30> H   3.691063626  -2.339003544  -3.065143454
| 31> H   1.934727323  -2.559520367  -3.223226661
| 32> H   2.879948338  -3.653846211  -2.177750170
| 33> *
| 34>
| 35>                          ****END OF INPUT****

CARTESIAN COORDINATES (ANGSTROEM)
---------------------------------
  O      0.666045   -2.600503    0.138318
  H     -0.227115   -2.712052   -0.281868
  C      0.490021   -1.851248    1.341189
  H      1.466501   -1.466176    1.645844
  H      0.097565   -2.488365    2.146903
  H     -0.187588   -1.000787    1.200740
  O     -3.839777    2.233595    0.660437
  H     -2.958346    1.907036    0.973588
  C     -3.600368    3.168791   -0.390480
  H     -4.551709    3.344149   -0.901255
  H     -2.868238    2.789240   -1.113618
  H     -3.243595    4.128999    0.009549
  O      2.622209   -1.703003   -1.445860
  H      1.828551   -1.986514   -0.909755
  C      2.781118   -2.615822   -2.525473
  H      3.691064   -2.339004   -3.065143
  H      1.934727   -2.559520   -3.223227
  H      2.879948   -3.653846   -2.177750

 Total Charge           Charge          ....    0
 Multiplicity           Mult            ....    1
 Number of Electrons    NEL             ....   54
 Basis Dimension        Dim             ....  258

ORBITAL ENERGIES
----------------

  NO   OCC          E(Eh)            E(eV)
   0   2.0000     -20.593613      -560.3807
   1   2.0000     -20.561877      -559.5171
   2   2.0000     -20.513790      -558.2086
   3   2.0000     -11.293606      -307.3146
   4   2.0000     -11.275517      -306.8224
   5   2.0000     -11.249670      -306.1191
   6   2.0000      -1.385885       -37.7119
   7   2.0000      -1.351257       -36.7696
   8   2.0000      -1.310016       -35.6473
   9   2.0000      -0.945557       -25.7299
  10   2.0000      -0.923584       -25.1320
  11   2.0000      -0.896129       -24.3849
  12   2.0000      -0.719439       -19.5769
  13   2.0000      -0.686171       -18.6717
  14   2.0000      -0.674237       -18.3469
  15   2.0000      -0.637436       -17.3455
  16   2.0000      -0.620817       -16.8933
  17   2.0000      -0.611217       -16.6320
  18   2.0000      -0.594277       -16.1711
  19   2.0000      -0.590938       -16.0802
  20   2.0000      -0.561878       -15.2895
  21   2.0000      -0.532465       -14.4891
  22   2.0000      -0.505892       -13.7660
  23   2.0000      -0.490461       -13.3461
  24   2.0000      -0.457424       -12.4471
  25   2.0000      -0.453694       -12.3456
  26   2.0000      -0.416740       -11.3401
  27   0.0000       0.100039         2.7222
  28   0.0000       0.126401         3.4395
  29   0.0000       0.159227         4.3328
  30   0.0000       0.172271         4.6877
  31   0.0000       0.180807         4.9200

MULLIKEN ATOMIC CHARGES
-----------------------
   0 O :   -0.514062
   1 H :    0.341463
   2 C :   -0.183498
   3 H :    0.153616
   4 H :    0.128215
   5 H :    0.116566
   6 O :   -0.496499
   7 H :    0.318499
   8 C :   -0.176469
   9 H :    0.130171
  10 H :    0.112306
  11 H :    0.112042
  12 O :   -0.534772
  13 H :    0.342506
  14 C :   -0.164937
  15 H :    0.121063
  16 H :    0.091136
  17 H :    0.102656
Sum of atomic charges:    0.0000000

LOEWDIN ATOMIC CHARGES
----------------------
   0 O :   -0.076356
   1 H :    0.198065
   2 C :   -0.366237
   3 H :    0.117949
   4 H :    0.104972
   5 H :    0.099676
   6 O :   -0.111542
   7 H :    0.186568
   8 C :   -0.378006
   9 H :    0.110184
  10 H :    0.096205
  11 H :    0.096593
  12 O :   -0.128761
  13 H :    0.159100
  14 C :   -0.395970
  15 H :    0.105788
  16 H :    0.088941
  17 H :    0.092833

  Mayer bond orders larger than 0.100000
B(  0-O ,  1-H ) :   0.8282 B(  0-O ,  2-C ) :   0.8709 B(  2-C ,  3-H ) :   0.9384
B(  2-C ,  4-H ) :   0.9335 B(  2-C ,  5-H ) :   0.9408 B(  6-O ,  7-H ) :   0.8456
B(  6-O ,  8-C ) :   0.9232 B(  8-C ,  9-H ) :   0.9377 B(  8-C , 10-H ) :   0.9409
B(  8-C , 11-H ) :   0.9379 B( 12-O , 13-H ) :   0.7876 B( 12-O , 14-C ) :   0.9436
B( 14-C , 15-H ) :   0.9415 B( 14-C , 16-H ) :   0.9413 B( 14-C , 17-H ) :   0.9370

MP2 TOTAL ENERGY:     -346.528104319 Eh
FINAL SINGLE POINT ENERGY      -346.528104318714

DIPOLE MOMENT
-------------
                                X             Y             Z
Electronic contribution:     -0.39586      -0.88926       1.46951
Nuclear contribution   :     -0.25832       0.74859      -1.23705
                        -----------------------------------------
Total Dipole Moment    :     -0.65418      -0.14068       0.23246
                        -----------------------------------------
Magnitude (a.u.)       :      0.70836
Magnitude (Debye)      :      1.80051

Rotational constants in cm-1:     0.093852     0.013784     0.012396
Rotational constants in MHz :  2813.612255   413.231870   371.629607

                             ****ORCA TERMINATED NORMALLY****
TOTAL RUN TIME: 0 days 0 hours 0 minutes 59 seconds 465 msec
