                         Program Version 4.2.0 -  RELEASE  -
|  1> # 12h2o.su.etal.mol2,3,10,11
|  2> ! MP2 def2-TZVP EnGrad TightSCF
|  3>
|  4> %pal
|  5>     nprocs 6
|  6> end
|  7>
|  8> %maxcore 8000
|  9>
| 10> %scf
| 11>     ConvForced true
| 12> end
| 13>
| 14> *xyz 0 1
| 15> O   0.923410000  -1.794470000  -2.768350000
| 16> H   1.359750000  -2.338250000  -3.430940000
| 17> H   1.303000000  -0.879480000  -2.865760000
| 18> O  -1.752130000  -0.741530000  -2.896280000
| 19> H  -2.036450000  -0.920500000  -1.984040000
| 20> H  -0.921210000  -1.242140000  -2.984230000
| 21> O  -0.923410000   1.794470000  -2.768350000
| 22> H  -1.359750000   2.338250000  -3.430940000
| 23> H  -1.303000000   0.879480000  -2.865760000
| 24> O  -0.741530000   1.752130000   2.896280000
| 25> H  -0.920500000   2.036450000   1.984040000
| 26> H  -1.242140000   0.921210000   2.984230000
| 27> *
| 28>
| 29>                          ****END OF INPUT****

CARTESIAN COORDINATES (ANGSTROEM)
---------------------------------
  O      0.923410   -1.794470   -2.768350
  H      1.359750   -2.338250   -3.430940
  H      1.303000   -0.879480   -2.865760
  O     -1.752130   -0.741530   -2.896280
  H     -2.036450   -0.920500   -1.984040
  H     -0.921210   -1.242140   -2.984230
  O     -0.923410    1.794470   -2.768350
  H     -1.359750    2.338250   -3.430940
  H     -1.303000    0.879480   -2.865760
  O     -0.741530    1.752130    2.896280
  H     -0.920500    2.036450    1.984040
  H     -1.242140    0.921210    2.984230

 Total Charge           Charge          ....    0
 Multiplicity           Mult            ....    1
 Number of Electrons    NEL             ....   40
 Basis Dimension        Dim             ....  172

ORBITAL ENERGIES
----------------

  NO   OCC          E(Eh)            E(eV)
   0   2.0000     -20.598662      -560.5181
   1   2.0000     -20.573375      -559.8300
   2   2.0000     -20.556802      -559.3790
   3   2.0000     -20.520289      -558.3855
   4   2.0000      -1.377610       -37.4867
   5   2.0000      -1.360819       -37.0298
   6   2.0000      -1.336103       -36.3572
   7   2.0000      -1.302257       -35.4362
   8   2.0000      -0.744693       -20.2641
   9   2.0000      -0.722456       -19.6590
  10   2.0000      -0.698842       -19.0165
  11   2.0000      -0.690109       -18.7788
  12   2.0000      -0.622472       -16.9383
  13   2.0000      -0.595328       -16.1997
  14   2.0000      -0.573644       -15.6096
  15   2.0000      -0.552787       -15.0421
  16   2.0000      -0.538054       -14.6412
  17   2.0000      -0.504729       -13.7344
  18   2.0000      -0.500997       -13.6328
  19   2.0000      -0.471091       -12.8190
  20   0.0000       0.103226         2.8089
  21   0.0000       0.128563         3.4984
  22   0.0000       0.151059         4.1105
  23   0.0000       0.172657         4.6982
  24   0.0000       0.191526         5.2117

MULLIKEN ATOMIC CHARGES
-----------------------
   0 O :   -0.703299
   1 H :    0.356525
   2 H :    0.370977
   3 O :   -0.698815
   4 H :    0.350814
   5 H :    0.373662
   6 O :   -0.739515
   7 H :    0.326193
   8 H :    0.363657
   9 O :   -0.676221
  10 H :    0.342348
  11 H :    0.333675
Sum of atomic charges:   -0.0000000

LOEWDIN ATOMIC CHARGES
----------------------
   0 O :   -0.311129
   1 H :    0.165710
   2 H :    0.192509
   3 O :   -0.282971
   4 H :    0.170311
   5 H :    0.153447
   6 O :   -0.376891
   7 H :    0.148714
   8 H :    0.140420
   9 O :   -0.332750
  10 H :    0.167546
  11 H :    0.165084

  Mayer bond orders larger than 0.100000
B(  0-O ,  1-H ) :   0.8394 B(  0-O ,  2-H ) :   0.8222 B(  3-O ,  4-H ) :   0.8423
B(  3-O ,  5-H ) :   0.7975 B(  6-O ,  7-H ) :   0.8601 B(  6-O ,  8-H ) :   0.7778
B(  9-O , 10-H ) :   0.8501 B(  9-O , 11-H ) :   0.8551

MP2 TOTAL ENERGY:     -305.271442804 Eh
FINAL SINGLE POINT ENERGY      -305.271442804307

DIPOLE MOMENT
-------------
                                X             Y             Z
Electronic contribution:      0.14825      -0.22858       0.17203
Nuclear contribution   :     -0.11069      -1.02062      -1.26519
                        -----------------------------------------
Total Dipole Moment    :      0.03757      -1.24920      -1.09315
                        -----------------------------------------
Magnitude (a.u.)       :      1.66039
Magnitude (Debye)      :      4.22038

Rotational constants in cm-1:     0.095802     0.030442     0.026240
Rotational constants in MHz :  2872.075549   912.625060   786.665932

                             ****ORCA TERMINATED NORMALLY****
TOTAL RUN TIME: 0 days 0 hours 0 minutes 14 seconds 534 msec
