                         Program Version 4.2.0 -  RELEASE  -
|  1> # 12h2o.su.etal.mol0,2,3,4,5,7,8,10
|  2> ! MP2 def2-TZVP EnGrad TightSCF
|  3>
|  4> %pal
|  5>     nprocs 6
|  6> end
|  7>
|  8> %maxcore 8000
|  9>
| 10> %scf
| 11>     ConvForced true
| 12> end
| 13>
| 14> *xyz 0 1
| 15> O   1.794470000   0.923410000   2.768350000
| 16> H   2.338250000   1.359750000   3.430940000
| 17> H   0.879480000   1.303000000   2.865760000
| 18> O   0.923410000  -1.794470000  -2.768350000
| 19> H   1.359750000  -2.338250000  -3.430940000
| 20> H   1.303000000  -0.879480000  -2.865760000
| 21> O  -1.752130000  -0.741530000  -2.896280000
| 22> H  -2.036450000  -0.920500000  -1.984040000
| 23> H  -0.921210000  -1.242140000  -2.984230000
| 24> O  -0.885520000   1.737840000   0.052730000
| 25> H  -1.032320000   2.090180000  -0.841890000
| 26> H  -1.284090000   0.839590000   0.017130000
| 27> O   0.885520000  -1.737840000   0.052730000
| 28> H   1.284090000  -0.839590000   0.017130000
| 29> H   1.032320000  -2.090180000  -0.841890000
| 30> O  -1.737840000  -0.885520000  -0.052730000
| 31> H  -2.090180000  -1.032320000   0.841890000
| 32> H  -0.839590000  -1.284090000  -0.017130000
| 33> O   1.752130000   0.741530000  -2.896280000
| 34> H   2.036450000   0.920500000  -1.984040000
| 35> H   0.921210000   1.242140000  -2.984230000
| 36> O  -0.923410000   1.794470000  -2.768350000
| 37> H  -1.359750000   2.338250000  -3.430940000
| 38> H  -1.303000000   0.879480000  -2.865760000
| 39> *
| 40>
| 41>                          ****END OF INPUT****

CARTESIAN COORDINATES (ANGSTROEM)
---------------------------------
  O      1.794470    0.923410    2.768350
  H      2.338250    1.359750    3.430940
  H      0.879480    1.303000    2.865760
  O      0.923410   -1.794470   -2.768350
  H      1.359750   -2.338250   -3.430940
  H      1.303000   -0.879480   -2.865760
  O     -1.752130   -0.741530   -2.896280
  H     -2.036450   -0.920500   -1.984040
  H     -0.921210   -1.242140   -2.984230
  O     -0.885520    1.737840    0.052730
  H     -1.032320    2.090180   -0.841890
  H     -1.284090    0.839590    0.017130
  O      0.885520   -1.737840    0.052730
  H      1.284090   -0.839590    0.017130
  H      1.032320   -2.090180   -0.841890
  O     -1.737840   -0.885520   -0.052730
  H     -2.090180   -1.032320    0.841890
  H     -0.839590   -1.284090   -0.017130
  O      1.752130    0.741530   -2.896280
  H      2.036450    0.920500   -1.984040
  H      0.921210    1.242140   -2.984230
  O     -0.923410    1.794470   -2.768350
  H     -1.359750    2.338250   -3.430940
  H     -1.303000    0.879480   -2.865760

 Total Charge           Charge          ....    0
 Multiplicity           Mult            ....    1
 Number of Electrons    NEL             ....   80
 Basis Dimension        Dim             ....  344

ORBITAL ENERGIES
----------------

  NO   OCC          E(Eh)            E(eV)
   0   2.0000     -20.581817      -560.0597
   1   2.0000     -20.577886      -559.9528
   2   2.0000     -20.572597      -559.8088
   3   2.0000     -20.569253      -559.7178
   4   2.0000     -20.562868      -559.5441
   5   2.0000     -20.556107      -559.3601
   6   2.0000     -20.555521      -559.3442
   7   2.0000     -20.505862      -557.9929
   8   2.0000      -1.379738       -37.5446
   9   2.0000      -1.367329       -37.2069
  10   2.0000      -1.359593       -36.9964
  11   2.0000      -1.355968       -36.8978
  12   2.0000      -1.346417       -36.6379
  13   2.0000      -1.336314       -36.3630
  14   2.0000      -1.330868       -36.2148
  15   2.0000      -1.290014       -35.1031
  16   2.0000      -0.743916       -20.2430
  17   2.0000      -0.735780       -20.0216
  18   2.0000      -0.729031       -19.8379
  19   2.0000      -0.723347       -19.6833
  20   2.0000      -0.715530       -19.4706
  21   2.0000      -0.711665       -19.3654
  22   2.0000      -0.698971       -19.0200
  23   2.0000      -0.673461       -18.3258
  24   2.0000      -0.642642       -17.4872
  25   2.0000      -0.617276       -16.7969
  26   2.0000      -0.608369       -16.5546
  27   2.0000      -0.592994       -16.1362
  28   2.0000      -0.587255       -15.9800
  29   2.0000      -0.570078       -15.5126
  30   2.0000      -0.567932       -15.4542
  31   2.0000      -0.546037       -14.8584
  32   2.0000      -0.525243       -14.2926
  33   2.0000      -0.524149       -14.2628
  34   2.0000      -0.513135       -13.9631
  35   2.0000      -0.510687       -13.8965
  36   2.0000      -0.501744       -13.6531
  37   2.0000      -0.500145       -13.6096
  38   2.0000      -0.498066       -13.5531
  39   2.0000      -0.456887       -12.4325
  40   0.0000       0.101768         2.7692
  41   0.0000       0.132712         3.6113
  42   0.0000       0.144974         3.9449
  43   0.0000       0.148075         4.0293
  44   0.0000       0.155795         4.2394

MULLIKEN ATOMIC CHARGES
-----------------------
   0 O :   -0.691540
   1 H :    0.336268
   2 H :    0.355095
   3 O :   -0.760680
   4 H :    0.355739
   5 H :    0.382385
   6 O :   -0.723269
   7 H :    0.388068
   8 H :    0.368595
   9 O :   -0.741509
  10 H :    0.359493
  11 H :    0.339786
  12 O :   -0.698803
  13 H :    0.352151
  14 H :    0.378406
  15 O :   -0.740279
  16 H :    0.358558
  17 H :    0.374215
  18 O :   -0.708887
  19 H :    0.356091
  20 H :    0.385045
  21 O :   -0.756597
  22 H :    0.348713
  23 H :    0.382957
Sum of atomic charges:    0.0000000

LOEWDIN ATOMIC CHARGES
----------------------
   0 O :   -0.342257
   1 H :    0.156895
   2 H :    0.184996
   3 O :   -0.316269
   4 H :    0.161530
   5 H :    0.145653
   6 O :   -0.285699
   7 H :    0.157406
   8 H :    0.149197
   9 O :   -0.373738
  10 H :    0.142531
  11 H :    0.133136
  12 O :   -0.293471
  13 H :    0.173297
  14 H :    0.151766
  15 O :   -0.299598
  16 H :    0.171579
  17 H :    0.147493
  18 O :   -0.279604
  19 H :    0.170301
  20 H :    0.156498
  21 O :   -0.315809
  22 H :    0.158132
  23 H :    0.146034

  Mayer bond orders larger than 0.100000
B(  0-O ,  1-H ) :   0.8542 B(  0-O ,  2-H ) :   0.8356 B(  3-O ,  4-H ) :   0.8376
B(  3-O ,  5-H ) :   0.7317 B(  5-H , 18-O ) :   0.1155 B(  6-O ,  7-H ) :   0.8013
B(  6-O ,  8-H ) :   0.8004 B(  6-O , 23-H ) :   0.1217 B(  9-O , 10-H ) :   0.8246
B(  9-O , 11-H ) :   0.8074 B( 12-O , 13-H ) :   0.8320 B( 12-O , 14-H ) :   0.7993
B( 12-O , 17-H ) :   0.1085 B( 15-O , 16-H ) :   0.8356 B( 15-O , 17-H ) :   0.7521
B( 18-O , 19-H ) :   0.8368 B( 18-O , 20-H ) :   0.7797 B( 21-O , 22-H ) :   0.8410
B( 21-O , 23-H ) :   0.7272

MP2 TOTAL ENERGY:     -610.595872024 Eh
FINAL SINGLE POINT ENERGY      -610.595872024012

DIPOLE MOMENT
-------------
                                X             Y             Z
Electronic contribution:      0.14516      -0.32760      -0.17765
Nuclear contribution   :      0.14541       0.22520      -0.03466
                        -----------------------------------------
Total Dipole Moment    :      0.29058      -0.10240      -0.21231
                        -----------------------------------------
Magnitude (a.u.)       :      0.37416
Magnitude (Debye)      :      0.95103

Rotational constants in cm-1:     0.031911     0.020218     0.019042
Rotational constants in MHz :   956.659385   606.115766   570.874365

                             ****ORCA TERMINATED NORMALLY****
TOTAL RUN TIME: 0 days 0 hours 3 minutes 23 seconds 896 msec
