                         Program Version 4.2.0 -  RELEASE  -
|  1> # 12h2o.su.etal.mol4,8,10,11
|  2> ! MP2 def2-TZVP EnGrad TightSCF
|  3>
|  4> %pal
|  5>     nprocs 6
|  6> end
|  7>
|  8> %maxcore 8000
|  9>
| 10> %scf
| 11>     ConvForced true
| 12> end
| 13>
| 14> *xyz 0 1
| 15> O  -0.885520000   1.737840000   0.052730000
| 16> H  -1.032320000   2.090180000  -0.841890000
| 17> H  -1.284090000   0.839590000   0.017130000
| 18> O   1.752130000   0.741530000  -2.896280000
| 19> H   2.036450000   0.920500000  -1.984040000
| 20> H   0.921210000   1.242140000  -2.984230000
| 21> O  -0.923410000   1.794470000  -2.768350000
| 22> H  -1.359750000   2.338250000  -3.430940000
| 23> H  -1.303000000   0.879480000  -2.865760000
| 24> O  -0.741530000   1.752130000   2.896280000
| 25> H  -0.920500000   2.036450000   1.984040000
| 26> H  -1.242140000   0.921210000   2.984230000
| 27> *
| 28>
| 29>                          ****END OF INPUT****

CARTESIAN COORDINATES (ANGSTROEM)
---------------------------------
  O     -0.885520    1.737840    0.052730
  H     -1.032320    2.090180   -0.841890
  H     -1.284090    0.839590    0.017130
  O      1.752130    0.741530   -2.896280
  H      2.036450    0.920500   -1.984040
  H      0.921210    1.242140   -2.984230
  O     -0.923410    1.794470   -2.768350
  H     -1.359750    2.338250   -3.430940
  H     -1.303000    0.879480   -2.865760
  O     -0.741530    1.752130    2.896280
  H     -0.920500    2.036450    1.984040
  H     -1.242140    0.921210    2.984230

 Total Charge           Charge          ....    0
 Multiplicity           Mult            ....    1
 Number of Electrons    NEL             ....   40
 Basis Dimension        Dim             ....  172

ORBITAL ENERGIES
----------------

  NO   OCC          E(Eh)            E(eV)
   0   2.0000     -20.627712      -561.3086
   1   2.0000     -20.573179      -559.8246
   2   2.0000     -20.539850      -558.9177
   3   2.0000     -20.528210      -558.6010
   4   2.0000      -1.407872       -38.3101
   5   2.0000      -1.354479       -36.8573
   6   2.0000      -1.322405       -35.9845
   7   2.0000      -1.310027       -35.6476
   8   2.0000      -0.773486       -21.0476
   9   2.0000      -0.724569       -19.7165
  10   2.0000      -0.694664       -18.9028
  11   2.0000      -0.678709       -18.4686
  12   2.0000      -0.644708       -17.5434
  13   2.0000      -0.603559       -16.4237
  14   2.0000      -0.574805       -15.6412
  15   2.0000      -0.550344       -14.9756
  16   2.0000      -0.543112       -14.7788
  17   2.0000      -0.517474       -14.0812
  18   2.0000      -0.487341       -13.2612
  19   2.0000      -0.474624       -12.9152
  20   0.0000       0.079760         2.1704
  21   0.0000       0.128873         3.5068
  22   0.0000       0.158937         4.3249
  23   0.0000       0.169110         4.6017
  24   0.0000       0.198773         5.4089

MULLIKEN ATOMIC CHARGES
-----------------------
   0 O :   -0.701687
   1 H :    0.373449
   2 H :    0.325794
   3 O :   -0.704086
   4 H :    0.338312
   5 H :    0.352260
   6 O :   -0.712989
   7 H :    0.368807
   8 H :    0.368145
   9 O :   -0.693111
  10 H :    0.370756
  11 H :    0.314351
Sum of atomic charges:    0.0000000

LOEWDIN ATOMIC CHARGES
----------------------
   0 O :   -0.322351
   1 H :    0.151980
   2 H :    0.165834
   3 O :   -0.346175
   4 H :    0.164117
   5 H :    0.144221
   6 O :   -0.286312
   7 H :    0.170082
   8 H :    0.191047
   9 O :   -0.340412
  10 H :    0.152262
  11 H :    0.155708

  Mayer bond orders larger than 0.100000
B(  0-O ,  1-H ) :   0.8113 B(  0-O ,  2-H ) :   0.8523 B(  3-O ,  4-H ) :   0.8521
B(  3-O ,  5-H ) :   0.8300 B(  6-O ,  7-H ) :   0.8294 B(  6-O ,  8-H ) :   0.8226
B(  9-O , 10-H ) :   0.8192 B(  9-O , 11-H ) :   0.8658

MP2 TOTAL ENERGY:     -305.269562894 Eh
FINAL SINGLE POINT ENERGY      -305.269562893726

DIPOLE MOMENT
-------------
                                X             Y             Z
Electronic contribution:      0.22633       0.23967      -0.14160
Nuclear contribution   :     -2.15372      -0.65269      -1.40687
                        -----------------------------------------
Total Dipole Moment    :     -1.92738      -0.41301      -1.54847
                        -----------------------------------------
Magnitude (a.u.)       :      2.50662
Magnitude (Debye)      :      6.37132

Rotational constants in cm-1:     0.208987     0.038839     0.033161
Rotational constants in MHz :  6265.267739  1164.353600   994.128500

                             ****ORCA TERMINATED NORMALLY****
TOTAL RUN TIME: 0 days 0 hours 0 minutes 21 seconds 55 msec
