                         Program Version 4.2.0 -  RELEASE  -
|  1> # 12h2o.su.etal.mol1,2,5,6,8,10,11
|  2> ! MP2 def2-TZVP EnGrad TightSCF
|  3>
|  4> %pal
|  5>     nprocs 6
|  6> end
|  7>
|  8> %maxcore 8000
|  9>
| 10> %scf
| 11>     ConvForced true
| 12> end
| 13>
| 14> *xyz 0 1
| 15> O  -1.794470000  -0.923410000   2.768350000
| 16> H  -2.338250000  -1.359750000   3.430940000
| 17> H  -0.879480000  -1.303000000   2.865760000
| 18> O   0.923410000  -1.794470000  -2.768350000
| 19> H   1.359750000  -2.338250000  -3.430940000
| 20> H   1.303000000  -0.879480000  -2.865760000
| 21> O   0.885520000  -1.737840000   0.052730000
| 22> H   1.284090000  -0.839590000   0.017130000
| 23> H   1.032320000  -2.090180000  -0.841890000
| 24> O   1.737840000   0.885520000  -0.052730000
| 25> H   2.090180000   1.032320000   0.841890000
| 26> H   0.839590000   1.284090000  -0.017130000
| 27> O   1.752130000   0.741530000  -2.896280000
| 28> H   2.036450000   0.920500000  -1.984040000
| 29> H   0.921210000   1.242140000  -2.984230000
| 30> O  -0.923410000   1.794470000  -2.768350000
| 31> H  -1.359750000   2.338250000  -3.430940000
| 32> H  -1.303000000   0.879480000  -2.865760000
| 33> O  -0.741530000   1.752130000   2.896280000
| 34> H  -0.920500000   2.036450000   1.984040000
| 35> H  -1.242140000   0.921210000   2.984230000
| 36> *
| 37>
| 38>                          ****END OF INPUT****

CARTESIAN COORDINATES (ANGSTROEM)
---------------------------------
  O     -1.794470   -0.923410    2.768350
  H     -2.338250   -1.359750    3.430940
  H     -0.879480   -1.303000    2.865760
  O      0.923410   -1.794470   -2.768350
  H      1.359750   -2.338250   -3.430940
  H      1.303000   -0.879480   -2.865760
  O      0.885520   -1.737840    0.052730
  H      1.284090   -0.839590    0.017130
  H      1.032320   -2.090180   -0.841890
  O      1.737840    0.885520   -0.052730
  H      2.090180    1.032320    0.841890
  H      0.839590    1.284090   -0.017130
  O      1.752130    0.741530   -2.896280
  H      2.036450    0.920500   -1.984040
  H      0.921210    1.242140   -2.984230
  O     -0.923410    1.794470   -2.768350
  H     -1.359750    2.338250   -3.430940
  H     -1.303000    0.879480   -2.865760
  O     -0.741530    1.752130    2.896280
  H     -0.920500    2.036450    1.984040
  H     -1.242140    0.921210    2.984230

 Total Charge           Charge          ....    0
 Multiplicity           Mult            ....    1
 Number of Electrons    NEL             ....   70
 Basis Dimension        Dim             ....  301

ORBITAL ENERGIES
----------------

  NO   OCC          E(Eh)            E(eV)
   0   2.0000     -20.606625      -560.7348
   1   2.0000     -20.601204      -560.5873
   2   2.0000     -20.578802      -559.9777
   3   2.0000     -20.555274      -559.3375
   4   2.0000     -20.542989      -559.0031
   5   2.0000     -20.530328      -558.6586
   6   2.0000     -20.495909      -557.7220
   7   2.0000      -1.389817       -37.8189
   8   2.0000      -1.379165       -37.5290
   9   2.0000      -1.356775       -36.9197
  10   2.0000      -1.347505       -36.6675
  11   2.0000      -1.324629       -36.0450
  12   2.0000      -1.313926       -35.7537
  13   2.0000      -1.280019       -34.8311
  14   2.0000      -0.748996       -20.3812
  15   2.0000      -0.746368       -20.3097
  16   2.0000      -0.723988       -19.7007
  17   2.0000      -0.713670       -19.4200
  18   2.0000      -0.697507       -18.9801
  19   2.0000      -0.692534       -18.8448
  20   2.0000      -0.667833       -18.1726
  21   2.0000      -0.637445       -17.3458
  22   2.0000      -0.615460       -16.7475
  23   2.0000      -0.599400       -16.3105
  24   2.0000      -0.585457       -15.9311
  25   2.0000      -0.572799       -15.5867
  26   2.0000      -0.562236       -15.2992
  27   2.0000      -0.547604       -14.9011
  28   2.0000      -0.536248       -14.5921
  29   2.0000      -0.518962       -14.1217
  30   2.0000      -0.512250       -13.9390
  31   2.0000      -0.496183       -13.5018
  32   2.0000      -0.490116       -13.3367
  33   2.0000      -0.476299       -12.9608
  34   2.0000      -0.446845       -12.1593
  35   0.0000       0.089542         2.4366
  36   0.0000       0.114521         3.1163
  37   0.0000       0.134744         3.6666
  38   0.0000       0.156586         4.2609
  39   0.0000       0.166215         4.5229

MULLIKEN ATOMIC CHARGES
-----------------------
   0 O :   -0.697525
   1 H :    0.348940
   2 H :    0.371311
   3 O :   -0.740511
   4 H :    0.331132
   5 H :    0.367084
   6 O :   -0.740066
   7 H :    0.333550
   8 H :    0.365203
   9 O :   -0.710809
  10 H :    0.374164
  11 H :    0.362386
  12 O :   -0.714685
  13 H :    0.382157
  14 H :    0.364358
  15 O :   -0.710188
  16 H :    0.359014
  17 H :    0.374232
  18 O :   -0.703085
  19 H :    0.319839
  20 H :    0.363499
Sum of atomic charges:   -0.0000000

LOEWDIN ATOMIC CHARGES
----------------------
   0 O :   -0.310504
   1 H :    0.162242
   2 H :    0.192141
   3 O :   -0.345041
   4 H :    0.150599
   5 H :    0.142223
   6 O :   -0.374898
   7 H :    0.131927
   8 H :    0.146143
   9 O :   -0.277151
  10 H :    0.179712
  11 H :    0.179485
  12 O :   -0.285208
  13 H :    0.155527
  14 H :    0.148920
  15 O :   -0.314121
  16 H :    0.166771
  17 H :    0.193602
  18 O :   -0.346307
  19 H :    0.154144
  20 H :    0.149792

  Mayer bond orders larger than 0.100000
B(  0-O ,  1-H ) :   0.8434 B(  0-O ,  2-H ) :   0.8213 B(  3-O ,  4-H ) :   0.8534
B(  3-O ,  5-H ) :   0.7554 B(  5-H , 12-O ) :   0.1068 B(  6-O ,  7-H ) :   0.8245
B(  6-O ,  8-H ) :   0.8163 B(  9-O , 10-H ) :   0.8247 B(  9-O , 11-H ) :   0.8238
B( 12-O , 13-H ) :   0.8109 B( 12-O , 14-H ) :   0.8069 B( 15-O , 16-H ) :   0.8381
B( 15-O , 17-H ) :   0.8199 B( 18-O , 19-H ) :   0.8623 B( 18-O , 20-H ) :   0.8082

MP2 TOTAL ENERGY:     -534.242991995 Eh
FINAL SINGLE POINT ENERGY      -534.242991994563

DIPOLE MOMENT
-------------
                                X             Y             Z
Electronic contribution:     -0.02098       0.30471       0.06955
Nuclear contribution   :     -0.71209       0.33988      -0.63259
                        -----------------------------------------
Total Dipole Moment    :     -0.73307       0.64459      -0.56304
                        -----------------------------------------
Magnitude (a.u.)       :      1.12690
Magnitude (Debye)      :      2.86436

Rotational constants in cm-1:     0.041303     0.018423     0.016033
Rotational constants in MHz :  1238.241242   552.304936   480.654528

                             ****ORCA TERMINATED NORMALLY****
TOTAL RUN TIME: 0 days 0 hours 1 minutes 39 seconds 925 msec
