                         Program Version 4.2.0 -  RELEASE  -
|  1> # 12h2o.su.etal.mol1,3,6,7,8,11
|  2> ! MP2 def2-TZVP EnGrad TightSCF
|  3>
|  4> %pal
|  5>     nprocs 6
|  6> end
|  7>
|  8> %maxcore 8000
|  9>
| 10> %scf
| 11>     ConvForced true
| 12> end
| 13>
| 14> *xyz 0 1
| 15> O  -1.794470000  -0.923410000   2.768350000
| 16> H  -2.338250000  -1.359750000   3.430940000
| 17> H  -0.879480000  -1.303000000   2.865760000
| 18> O  -1.752130000  -0.741530000  -2.896280000
| 19> H  -2.036450000  -0.920500000  -1.984040000
| 20> H  -0.921210000  -1.242140000  -2.984230000
| 21> O   1.737840000   0.885520000  -0.052730000
| 22> H   2.090180000   1.032320000   0.841890000
| 23> H   0.839590000   1.284090000  -0.017130000
| 24> O  -1.737840000  -0.885520000  -0.052730000
| 25> H  -2.090180000  -1.032320000   0.841890000
| 26> H  -0.839590000  -1.284090000  -0.017130000
| 27> O   1.752130000   0.741530000  -2.896280000
| 28> H   2.036450000   0.920500000  -1.984040000
| 29> H   0.921210000   1.242140000  -2.984230000
| 30> O  -0.741530000   1.752130000   2.896280000
| 31> H  -0.920500000   2.036450000   1.984040000
| 32> H  -1.242140000   0.921210000   2.984230000
| 33> *
| 34>
| 35>                          ****END OF INPUT****

CARTESIAN COORDINATES (ANGSTROEM)
---------------------------------
  O     -1.794470   -0.923410    2.768350
  H     -2.338250   -1.359750    3.430940
  H     -0.879480   -1.303000    2.865760
  O     -1.752130   -0.741530   -2.896280
  H     -2.036450   -0.920500   -1.984040
  H     -0.921210   -1.242140   -2.984230
  O      1.737840    0.885520   -0.052730
  H      2.090180    1.032320    0.841890
  H      0.839590    1.284090   -0.017130
  O     -1.737840   -0.885520   -0.052730
  H     -2.090180   -1.032320    0.841890
  H     -0.839590   -1.284090   -0.017130
  O      1.752130    0.741530   -2.896280
  H      2.036450    0.920500   -1.984040
  H      0.921210    1.242140   -2.984230
  O     -0.741530    1.752130    2.896280
  H     -0.920500    2.036450    1.984040
  H     -1.242140    0.921210    2.984230

 Total Charge           Charge          ....    0
 Multiplicity           Mult            ....    1
 Number of Electrons    NEL             ....   60
 Basis Dimension        Dim             ....  258

ORBITAL ENERGIES
----------------

  NO   OCC          E(Eh)            E(eV)
   0   2.0000     -20.635891      -561.5311
   1   2.0000     -20.592775      -560.3579
   2   2.0000     -20.578311      -559.9643
   3   2.0000     -20.561128      -559.4967
   4   2.0000     -20.528163      -558.5997
   5   2.0000     -20.526115      -558.5440
   6   2.0000      -1.416076       -38.5334
   7   2.0000      -1.371015       -37.3072
   8   2.0000      -1.359614       -36.9970
   9   2.0000      -1.343284       -36.5526
  10   2.0000      -1.310044       -35.6481
  11   2.0000      -1.307882       -35.5893
  12   2.0000      -0.781776       -21.2732
  13   2.0000      -0.733665       -19.9640
  14   2.0000      -0.729267       -19.8444
  15   2.0000      -0.714084       -19.4312
  16   2.0000      -0.680657       -18.5216
  17   2.0000      -0.676899       -18.4194
  18   2.0000      -0.653691       -17.7878
  19   2.0000      -0.611353       -16.6358
  20   2.0000      -0.610284       -16.6067
  21   2.0000      -0.585649       -15.9363
  22   2.0000      -0.564398       -15.3581
  23   2.0000      -0.549987       -14.9659
  24   2.0000      -0.544402       -14.8139
  25   2.0000      -0.532797       -14.4982
  26   2.0000      -0.521689       -14.1959
  27   2.0000      -0.507894       -13.8205
  28   2.0000      -0.476845       -12.9756
  29   2.0000      -0.470466       -12.8020
  30   0.0000       0.068012         1.8507
  31   0.0000       0.105194         2.8625
  32   0.0000       0.138651         3.7729
  33   0.0000       0.148972         4.0537
  34   0.0000       0.163681         4.4540

MULLIKEN ATOMIC CHARGES
-----------------------
   0 O :   -0.716287
   1 H :    0.371740
   2 H :    0.369194
   3 O :   -0.702986
   4 H :    0.368105
   5 H :    0.328357
   6 O :   -0.697368
   7 H :    0.354572
   8 H :    0.342768
   9 O :   -0.711249
  10 H :    0.373373
  11 H :    0.334760
  12 O :   -0.700748
  13 H :    0.366931
  14 H :    0.329597
  15 O :   -0.698582
  16 H :    0.329025
  17 H :    0.358800
Sum of atomic charges:   -0.0000000

LOEWDIN ATOMIC CHARGES
----------------------
   0 O :   -0.286965
   1 H :    0.171480
   2 H :    0.191469
   3 O :   -0.341921
   4 H :    0.150909
   5 H :    0.159636
   6 O :   -0.317544
   7 H :    0.171567
   8 H :    0.171134
   9 O :   -0.324083
  10 H :    0.151585
  11 H :    0.167533
  12 O :   -0.340138
  13 H :    0.151489
  14 H :    0.160326
  15 O :   -0.341622
  16 H :    0.158180
  17 H :    0.146965

  Mayer bond orders larger than 0.100000
B(  0-O ,  1-H ) :   0.8276 B(  0-O ,  2-H ) :   0.8217 B(  3-O ,  4-H ) :   0.8217
B(  3-O ,  5-H ) :   0.8545 B(  6-O ,  7-H ) :   0.8383 B(  6-O ,  8-H ) :   0.8370
B(  9-O , 10-H ) :   0.8116 B(  9-O , 11-H ) :   0.8439 B( 12-O , 13-H ) :   0.8243
B( 12-O , 14-H ) :   0.8538 B( 15-O , 16-H ) :   0.8563 B( 15-O , 17-H ) :   0.8229

MP2 TOTAL ENERGY:     -457.908359626 Eh
FINAL SINGLE POINT ENERGY      -457.908359625990

DIPOLE MOMENT
-------------
                                X             Y             Z
Electronic contribution:     -0.07931       0.01731       0.09529
Nuclear contribution   :     -0.25668      -1.13412       2.86726
                        -----------------------------------------
Total Dipole Moment    :     -0.33598      -1.11681       2.96255
                        -----------------------------------------
Magnitude (a.u.)       :      3.18384
Magnitude (Debye)      :      8.09267

Rotational constants in cm-1:     0.049437     0.025124     0.018049
Rotational constants in MHz :  1482.087206   753.211402   541.087765

                             ****ORCA TERMINATED NORMALLY****
TOTAL RUN TIME: 0 days 0 hours 0 minutes 49 seconds 527 msec
