                         Program Version 4.2.0 -  RELEASE  -
|  1> # 12meoh.boyd.etal.mol0,5,10
|  2> ! MP2 def2-TZVP EnGrad TightSCF
|  3>
|  4> %pal
|  5>     nprocs 6
|  6> end
|  7>
|  8> %maxcore 8000
|  9>
| 10> %scf
| 11>     ConvForced true
| 12> end
| 13>
| 14> *xyz 0 1
| 15> O  -1.776108874  -2.741384797  -1.019308298
| 16> H  -2.520094035  -2.452295987  -0.420778302
| 17> C  -2.174025166  -3.952700964  -1.647004581
| 18> H  -1.359803895  -4.272673416  -2.304149236
| 19> H  -3.075973971  -3.808692420  -2.256751112
| 20> H  -2.370225393  -4.752784761  -0.918966137
| 21> O  -0.662721750   1.449094618  -1.383082065
| 22> H   0.064188300   2.119867608  -1.465650660
| 23> C  -0.353319239   0.341218776  -2.229326771
| 24> H  -1.072358530  -0.454743281  -2.019906495
| 25> H   0.657636746  -0.044472139  -2.042736771
| 26> H  -0.434616607   0.624733901  -3.287793021
| 27> O  -5.201143618   0.064582726  -0.172223772
| 28> H  -4.686891530   0.869258890   0.107806143
| 29> C  -6.513192168   0.171391798   0.359883449
| 30> H  -7.049381312  -0.749234190   0.111361174
| 31> H  -7.057741163   1.017801101  -0.081819420
| 32> H  -6.514770575   0.292264928   1.453058834
| 33> *
| 34>
| 35>                          ****END OF INPUT****

CARTESIAN COORDINATES (ANGSTROEM)
---------------------------------
  O     -1.776109   -2.741385   -1.019308
  H     -2.520094   -2.452296   -0.420778
  C     -2.174025   -3.952701   -1.647005
  H     -1.359804   -4.272673   -2.304149
  H     -3.075974   -3.808692   -2.256751
  H     -2.370225   -4.752785   -0.918966
  O     -0.662722    1.449095   -1.383082
  H      0.064188    2.119868   -1.465651
  C     -0.353319    0.341219   -2.229327
  H     -1.072359   -0.454743   -2.019906
  H      0.657637   -0.044472   -2.042737
  H     -0.434617    0.624734   -3.287793
  O     -5.201144    0.064583   -0.172224
  H     -4.686892    0.869259    0.107806
  C     -6.513192    0.171392    0.359883
  H     -7.049381   -0.749234    0.111361
  H     -7.057741    1.017801   -0.081819
  H     -6.514771    0.292265    1.453059

 Total Charge           Charge          ....    0
 Multiplicity           Mult            ....    1
 Number of Electrons    NEL             ....   54
 Basis Dimension        Dim             ....  258

ORBITAL ENERGIES
----------------

  NO   OCC          E(Eh)            E(eV)
   0   2.0000     -20.557260      -559.3915
   1   2.0000     -20.552277      -559.2559
   2   2.0000     -20.545146      -559.0619
   3   2.0000     -11.271528      -306.7139
   4   2.0000     -11.266560      -306.5787
   5   2.0000     -11.253266      -306.2169
   6   2.0000      -1.347318       -36.6624
   7   2.0000      -1.341753       -36.5110
   8   2.0000      -1.332964       -36.2718
   9   2.0000      -0.919208       -25.0129
  10   2.0000      -0.914240       -24.8777
  11   2.0000      -0.903285       -24.5796
  12   2.0000      -0.682061       -18.5598
  13   2.0000      -0.676213       -18.4007
  14   2.0000      -0.667529       -18.1644
  15   2.0000      -0.616807       -16.7842
  16   2.0000      -0.612502       -16.6670
  17   2.0000      -0.601849       -16.3771
  18   2.0000      -0.591584       -16.0978
  19   2.0000      -0.588426       -16.0119
  20   2.0000      -0.572905       -15.5895
  21   2.0000      -0.500140       -13.6095
  22   2.0000      -0.497055       -13.5256
  23   2.0000      -0.483599       -13.1594
  24   2.0000      -0.448437       -12.2026
  25   2.0000      -0.443197       -12.0600
  26   2.0000      -0.436039       -11.8652
  27   0.0000       0.125860         3.4248
  28   0.0000       0.147187         4.0051
  29   0.0000       0.149982         4.0812
  30   0.0000       0.172184         4.6854
  31   0.0000       0.188374         5.1259

MULLIKEN ATOMIC CHARGES
-----------------------
   0 O :   -0.498111
   1 H :    0.333167
   2 C :   -0.171958
   3 H :    0.125591
   4 H :    0.114131
   5 H :    0.108039
   6 O :   -0.509398
   7 H :    0.317866
   8 C :   -0.176100
   9 H :    0.152742
  10 H :    0.103824
  11 H :    0.098277
  12 O :   -0.502197
  13 H :    0.331056
  14 C :   -0.173315
  15 H :    0.125959
  16 H :    0.110672
  17 H :    0.109754
Sum of atomic charges:   -0.0000000

LOEWDIN ATOMIC CHARGES
----------------------
   0 O :   -0.103213
   1 H :    0.196929
   2 C :   -0.384418
   3 H :    0.108986
   4 H :    0.096684
   5 H :    0.096075
   6 O :   -0.118670
   7 H :    0.185728
   8 C :   -0.379512
   9 H :    0.112304
  10 H :    0.095531
  11 H :    0.092169
  12 O :   -0.109083
  13 H :    0.195236
  14 C :   -0.385365
  15 H :    0.109223
  16 H :    0.095965
  17 H :    0.095430

  Mayer bond orders larger than 0.100000
B(  0-O ,  1-H ) :   0.8321 B(  0-O ,  2-C ) :   0.9209 B(  2-C ,  3-H ) :   0.9396
B(  2-C ,  4-H ) :   0.9398 B(  2-C ,  5-H ) :   0.9345 B(  6-O ,  7-H ) :   0.8452
B(  6-O ,  8-C ) :   0.9175 B(  8-C ,  9-H ) :   0.9288 B(  8-C , 10-H ) :   0.9429
B(  8-C , 11-H ) :   0.9382 B( 12-O , 13-H ) :   0.8358 B( 12-O , 14-C ) :   0.9270
B( 14-C , 15-H ) :   0.9383 B( 14-C , 16-H ) :   0.9384 B( 14-C , 17-H ) :   0.9383

MP2 TOTAL ENERGY:     -346.524374914 Eh
FINAL SINGLE POINT ENERGY      -346.524374914371

DIPOLE MOMENT
-------------
                                X             Y             Z
Electronic contribution:      1.68951       2.47622       1.13145
Nuclear contribution   :     -2.00569      -2.36737      -0.98777
                        -----------------------------------------
Total Dipole Moment    :     -0.31618       0.10885       0.14368
                        -----------------------------------------
Magnitude (a.u.)       :      0.36395
Magnitude (Debye)      :      0.92510

Rotational constants in cm-1:     0.046115     0.028375     0.018049
Rotational constants in MHz :  1382.479498   850.667733   541.089955

                             ****ORCA TERMINATED NORMALLY****
TOTAL RUN TIME: 0 days 0 hours 1 minutes 1 seconds 211 msec
