                         Program Version 4.2.0 -  RELEASE  -
|  1> # 12h2o.su.etal.mol4,7,8,10,11
|  2> ! MP2 def2-TZVP EnGrad TightSCF
|  3>
|  4> %pal
|  5>     nprocs 6
|  6> end
|  7>
|  8> %maxcore 8000
|  9>
| 10> %scf
| 11>     ConvForced true
| 12> end
| 13>
| 14> *xyz 0 1
| 15> O  -0.885520000   1.737840000   0.052730000
| 16> H  -1.032320000   2.090180000  -0.841890000
| 17> H  -1.284090000   0.839590000   0.017130000
| 18> O  -1.737840000  -0.885520000  -0.052730000
| 19> H  -2.090180000  -1.032320000   0.841890000
| 20> H  -0.839590000  -1.284090000  -0.017130000
| 21> O   1.752130000   0.741530000  -2.896280000
| 22> H   2.036450000   0.920500000  -1.984040000
| 23> H   0.921210000   1.242140000  -2.984230000
| 24> O  -0.923410000   1.794470000  -2.768350000
| 25> H  -1.359750000   2.338250000  -3.430940000
| 26> H  -1.303000000   0.879480000  -2.865760000
| 27> O  -0.741530000   1.752130000   2.896280000
| 28> H  -0.920500000   2.036450000   1.984040000
| 29> H  -1.242140000   0.921210000   2.984230000
| 30> *
| 31>
| 32>                          ****END OF INPUT****

CARTESIAN COORDINATES (ANGSTROEM)
---------------------------------
  O     -0.885520    1.737840    0.052730
  H     -1.032320    2.090180   -0.841890
  H     -1.284090    0.839590    0.017130
  O     -1.737840   -0.885520   -0.052730
  H     -2.090180   -1.032320    0.841890
  H     -0.839590   -1.284090   -0.017130
  O      1.752130    0.741530   -2.896280
  H      2.036450    0.920500   -1.984040
  H      0.921210    1.242140   -2.984230
  O     -0.923410    1.794470   -2.768350
  H     -1.359750    2.338250   -3.430940
  H     -1.303000    0.879480   -2.865760
  O     -0.741530    1.752130    2.896280
  H     -0.920500    2.036450    1.984040
  H     -1.242140    0.921210    2.984230

 Total Charge           Charge          ....    0
 Multiplicity           Mult            ....    1
 Number of Electrons    NEL             ....   50
 Basis Dimension        Dim             ....  215

ORBITAL ENERGIES
----------------

  NO   OCC          E(Eh)            E(eV)
   0   2.0000     -20.614229      -560.9417
   1   2.0000     -20.613296      -560.9163
   2   2.0000     -20.537146      -558.8442
   3   2.0000     -20.536697      -558.8319
   4   2.0000     -20.528484      -558.6085
   5   2.0000      -1.394948       -37.9585
   6   2.0000      -1.393339       -37.9147
   7   2.0000      -1.325284       -36.0628
   8   2.0000      -1.319173       -35.8965
   9   2.0000      -1.308871       -35.6162
  10   2.0000      -0.760104       -20.6835
  11   2.0000      -0.751686       -20.4544
  12   2.0000      -0.707329       -19.2474
  13   2.0000      -0.690268       -18.7832
  14   2.0000      -0.678255       -18.4563
  15   2.0000      -0.640118       -17.4185
  16   2.0000      -0.627112       -17.0646
  17   2.0000      -0.590292       -16.0627
  18   2.0000      -0.565985       -15.4012
  19   2.0000      -0.550364       -14.9762
  20   2.0000      -0.543079       -14.7779
  21   2.0000      -0.527976       -14.3670
  22   2.0000      -0.488882       -13.3032
  23   2.0000      -0.484120       -13.1736
  24   2.0000      -0.474457       -12.9106
  25   0.0000       0.081154         2.2083
  26   0.0000       0.107311         2.9201
  27   0.0000       0.147800         4.0218
  28   0.0000       0.173774         4.7286
  29   0.0000       0.183809         5.0017

MULLIKEN ATOMIC CHARGES
-----------------------
   0 O :   -0.737150
   1 H :    0.365991
   2 H :    0.335496
   3 O :   -0.684221
   4 H :    0.356467
   5 H :    0.367689
   6 O :   -0.707378
   7 H :    0.336250
   8 H :    0.355268
   9 O :   -0.713560
  10 H :    0.364055
  11 H :    0.373438
  12 O :   -0.689732
  13 H :    0.376432
  14 H :    0.300956
Sum of atomic charges:   -0.0000000

LOEWDIN ATOMIC CHARGES
----------------------
   0 O :   -0.345663
   1 H :    0.147092
   2 H :    0.135871
   3 O :   -0.290762
   4 H :    0.172125
   5 H :    0.184557
   6 O :   -0.347941
   7 H :    0.162926
   8 H :    0.145319
   9 O :   -0.286548
  10 H :    0.167906
  11 H :    0.192519
  12 O :   -0.340302
  13 H :    0.153872
  14 H :    0.149026

  Mayer bond orders larger than 0.100000
B(  0-O ,  1-H ) :   0.8211 B(  0-O ,  2-H ) :   0.7968 B(  3-O ,  4-H ) :   0.8380
B(  3-O ,  5-H ) :   0.8286 B(  6-O ,  7-H ) :   0.8530 B(  6-O ,  8-H ) :   0.8259
B(  9-O , 10-H ) :   0.8321 B(  9-O , 11-H ) :   0.8190 B( 12-O , 13-H ) :   0.8104
B( 12-O , 14-H ) :   0.8725

MP2 TOTAL ENERGY:     -381.592901637 Eh
FINAL SINGLE POINT ENERGY      -381.592901637454

DIPOLE MOMENT
-------------
                                X             Y             Z
Electronic contribution:      0.07226       0.05822      -0.26680
Nuclear contribution   :     -1.69932      -1.10663      -0.63259
                        -----------------------------------------
Total Dipole Moment    :     -1.62706      -1.04842      -0.89939
                        -----------------------------------------
Magnitude (a.u.)       :      2.13434
Magnitude (Debye)      :      5.42506

Rotational constants in cm-1:     0.088539     0.032391     0.030094
Rotational constants in MHz :  2654.330634   971.057823   902.196690

                             ****ORCA TERMINATED NORMALLY****
TOTAL RUN TIME: 0 days 0 hours 0 minutes 34 seconds 112 msec
