                         Program Version 3.0.3 - RELEASE   -
|  1> ! B3LYP Def2-SVP def2-SVP/J RIJCOSX TightSCF Grid4 D3BJ COSMO OPT
|  2>
|  3> %pal nprocs 12 end
|  4>
|  5> %scf
|  6>         maxiter 800
|  7> end
|  8>
|  9> %cosmo
| 10>         SMD true
| 11>         solvent "WATER"
| 12> end
| 13>
| 14> * xyz  0  1
| 15>   O     -1.720210   -0.322031   -0.786396
| 16>   H     -0.851367   -0.550020   -1.117098
| 17>   H     -2.242807   -0.165229   -1.572867
| 18>   O     -0.842420    0.768785    1.560001
| 19>   H     -1.496945    1.397072    1.865097
| 20>   H     -1.238001    0.366569    0.786716
| 21>   O      1.729784    0.339999    0.749421
| 22>   H      2.330680    0.497340    1.477707
| 23>   H      0.862976    0.530422    1.108050
| 24>   O      0.845499   -0.828262   -1.558852
| 25>   H      1.250926   -0.389077   -0.811204
| 26>   H      1.364976   -1.622902   -1.681011
| 27> **                         ****END OF INPUT****
 Total Charge           Charge          ....    0
 Multiplicity           Mult            ....    1
 Number of Electrons    NEL             ....   40
 Basis Dimension        Dim             ....   96

ORBITAL ENERGIES
----------------

  NO   OCC          E(Eh)            E(eV)
   0   2.0000     -19.119125      -520.2578
   1   2.0000     -19.116154      -520.1770
   2   2.0000     -19.114946      -520.1441
   3   2.0000     -19.114655      -520.1362
   4   2.0000      -0.996127       -27.1060
   5   2.0000      -0.983283       -26.7565
   6   2.0000      -0.980761       -26.6879
   7   2.0000      -0.968558       -26.3558
   8   2.0000      -0.539595       -14.6831
   9   2.0000      -0.520001       -14.1499
  10   2.0000      -0.517235       -14.0747
  11   2.0000      -0.496981       -13.5235
  12   2.0000      -0.417945       -11.3729
  13   2.0000      -0.380709       -10.3596
  14   2.0000      -0.379042       -10.3142
  15   2.0000      -0.346420        -9.4266
  16   2.0000      -0.309812        -8.4304
  17   2.0000      -0.303780        -8.2663
  18   2.0000      -0.299613        -8.1529
  19   2.0000      -0.293445        -7.9850
  20   0.0000       0.054566         1.4848
  21   0.0000       0.095663         2.6031
  22   0.0000       0.096875         2.6361
  23   0.0000       0.121300         3.3007
  24   0.0000       0.208782         5.6813

MULLIKEN ATOMIC CHARGES
-----------------------
   0 O :   -0.332955
   1 H :    0.132229
   2 H :    0.195041
   3 O :   -0.330445
   4 H :    0.195430
   5 H :    0.135408
   6 O :   -0.332070
   7 H :    0.194130
   8 H :    0.131253
   9 O :   -0.325575
  10 H :    0.139213
  11 H :    0.198341
Sum of atomic charges:   -0.0000000

LOEWDIN ATOMIC CHARGES
----------------------
   0 O :   -0.132247
   1 H :    0.027838
   2 H :    0.098039
   3 O :   -0.131694
   4 H :    0.098595
   5 H :    0.032342
   6 O :   -0.136519
   7 H :    0.098936
   8 H :    0.031916
   9 O :   -0.121648
  10 H :    0.035294
  11 H :    0.099149

  Mayer bond orders larger than 0.1
B(  0-O ,  1-H ) :   0.9202 B(  0-O ,  2-H ) :   0.9757 B(  0-O ,  5-H ) :   0.1674
B(  1-H ,  9-O ) :   0.1814 B(  3-O ,  4-H ) :   0.9748 B(  3-O ,  5-H ) :   0.9257
B(  3-O ,  8-H ) :   0.1685 B(  6-O ,  7-H ) :   0.9733 B(  6-O ,  8-H ) :   0.9255
B(  6-O , 10-H ) :   0.1577 B(  9-O , 10-H ) :   0.9308 B(  9-O , 11-H ) :   0.9765

Dispersion correction           -0.007524119
FINAL SINGLE POINT ENERGY      -305.372696890430
Dispersion correction            ...
Dispersion correction           -0.007404303
FINAL SINGLE POINT ENERGY      -305.375609995670
Dispersion correction            ...
Dispersion correction           -0.007473318
FINAL SINGLE POINT ENERGY      -305.375910636641
Dispersion correction            ...
FINAL SINGLE POINT ENERGY      -305.376390929170
FINAL SINGLE POINT ENERGY      -305.376725675590
FINAL SINGLE POINT ENERGY      -305.377639146767
FINAL SINGLE POINT ENERGY      -305.378111125376
FINAL SINGLE POINT ENERGY      -305.378407326230
FINAL SINGLE POINT ENERGY      -305.378572473606
FINAL SINGLE POINT ENERGY      -305.378756547826
FINAL SINGLE POINT ENERGY      -305.383795255257
FINAL SINGLE POINT ENERGY      -305.384116938447
FINAL SINGLE POINT ENERGY      -305.384604039213
FINAL SINGLE POINT ENERGY      -305.385045097173
FINAL SINGLE POINT ENERGY      -305.385294840013
FINAL SINGLE POINT ENERGY      -305.385624519337
FINAL SINGLE POINT ENERGY      -305.385744362902
Dispersion correction           -0.008130354
FINAL SINGLE POINT ENERGY      -305.386045059754
Dispersion correction            ...
Dispersion correction           -0.008098464
FINAL SINGLE POINT ENERGY      -305.386037403022
Dispersion correction            ...

CARTESIAN COORDINATES (ANGSTROEM)
---------------------------------
  O     -1.661494   -0.592349   -0.690246
  H     -0.738536   -0.588923   -1.060848
  H     -2.177143   -0.096637   -1.344427
  O     -0.972192    0.680117    1.559714
  H     -0.991047    1.620886    1.321139
  H     -1.303161    0.229584    0.736600
  O      1.600992   -0.043237    0.986048
  H      2.169447    0.728320    1.134509
  H      0.712297    0.287450    1.275382
  O      0.917512   -0.483713   -1.554450
  H      1.283315   -0.305020   -0.644194
  H      1.153101   -1.413813   -1.699660

Dispersion correction           -0.008142889
FINAL SINGLE POINT ENERGY      -305.386110409620
Dispersion correction            ...

DIPOLE MOMENT
-------------
                                X             Y             Z
Electronic contribution:      0.01117      -0.07631       0.03951
Nuclear contribution   :      0.25831       1.11390      -0.73174
                        -----------------------------------------
Total Dipole Moment    :      0.26948       1.03759      -0.69223
                        -----------------------------------------
Magnitude (a.u.)       :      1.27609
Magnitude (Debye)      :      3.24355

                             ****ORCA TERMINATED NORMALLY****
TOTAL RUN TIME: 0 days 0 hours 43 minutes 2 seconds 327 msec
