                         Program Version 4.2.0 -  RELEASE  -
|  1> # 12h2o.su.etal.mol8
|  2> ! MP2 def2-TZVP EnGrad TightSCF
|  3>
|  4> %pal
|  5>     nprocs 6
|  6> end
|  7>
|  8> %maxcore 8000
|  9>
| 10> %scf
| 11>     ConvForced true
| 12> end
| 13>
| 14> *xyz 0 1
| 15> O   1.752130000   0.741530000  -2.896280000
| 16> H   2.036450000   0.920500000  -1.984040000
| 17> H   0.921210000   1.242140000  -2.984230000
| 18> *
| 19>
| 20>                          ****END OF INPUT****

CARTESIAN COORDINATES (ANGSTROEM)
---------------------------------
  O      1.752130    0.741530   -2.896280
  H      2.036450    0.920500   -1.984040
  H      0.921210    1.242140   -2.984230

 Total Charge           Charge          ....    0
 Multiplicity           Mult            ....    1
 Number of Electrons    NEL             ....   10
 Basis Dimension        Dim             ....   43

ORBITAL ENERGIES
----------------

  NO   OCC          E(Eh)            E(eV)
   0   2.0000     -20.562908      -559.5452
   1   2.0000      -1.342167       -36.5222
   2   2.0000      -0.704978       -19.1834
   3   2.0000      -0.579558       -15.7706
   4   2.0000      -0.506991       -13.7959
   5   0.0000       0.125910         3.4262
   6   0.0000       0.196086         5.3358
   7   0.0000       0.518572        14.1111
   8   0.0000       0.565560        15.3897
   9   0.0000       0.597563        16.2605

MULLIKEN ATOMIC CHARGES
-----------------------
   0 O :   -0.673136
   1 H :    0.336458
   2 H :    0.336678
Sum of atomic charges:   -0.0000000

LOEWDIN ATOMIC CHARGES
----------------------
   0 O :   -0.331664
   1 H :    0.165170
   2 H :    0.166494

  Mayer bond orders larger than 0.100000
B(  0-O ,  1-H ) :   0.8538 B(  0-O ,  2-H ) :   0.8534

MP2 TOTAL ENERGY:      -76.312839366 Eh
FINAL SINGLE POINT ENERGY       -76.312839365508

DIPOLE MOMENT
-------------
                                X             Y             Z
Electronic contribution:      0.07366      -0.09123      -0.11020
Nuclear contribution   :     -0.45497       0.56566       0.68611
                        -----------------------------------------
Total Dipole Moment    :     -0.38131       0.47443       0.57591
                        -----------------------------------------
Magnitude (a.u.)       :      0.83794
Magnitude (Debye)      :      2.12988

Rotational constants in cm-1:    26.153678    14.247593     9.223149
Rotational constants in MHz : 784067.527250 427132.096248 276503.063589

                             ****ORCA TERMINATED NORMALLY****
TOTAL RUN TIME: 0 days 0 hours 0 minutes 34 seconds 452 msec
