                         Program Version 4.2.0 -  RELEASE  -
|  1> # 12h2o.su.etal.mol0,2,4,5,6,7,8,10,11
|  2> ! MP2 def2-TZVP EnGrad TightSCF
|  3>
|  4> %pal
|  5>     nprocs 6
|  6> end
|  7>
|  8> %maxcore 8000
|  9>
| 10> %scf
| 11>     ConvForced true
| 12> end
| 13>
| 14> *xyz 0 1
| 15> O   1.794470000   0.923410000   2.768350000
| 16> H   2.338250000   1.359750000   3.430940000
| 17> H   0.879480000   1.303000000   2.865760000
| 18> O   0.923410000  -1.794470000  -2.768350000
| 19> H   1.359750000  -2.338250000  -3.430940000
| 20> H   1.303000000  -0.879480000  -2.865760000
| 21> O  -0.885520000   1.737840000   0.052730000
| 22> H  -1.032320000   2.090180000  -0.841890000
| 23> H  -1.284090000   0.839590000   0.017130000
| 24> O   0.885520000  -1.737840000   0.052730000
| 25> H   1.284090000  -0.839590000   0.017130000
| 26> H   1.032320000  -2.090180000  -0.841890000
| 27> O   1.737840000   0.885520000  -0.052730000
| 28> H   2.090180000   1.032320000   0.841890000
| 29> H   0.839590000   1.284090000  -0.017130000
| 30> O  -1.737840000  -0.885520000  -0.052730000
| 31> H  -2.090180000  -1.032320000   0.841890000
| 32> H  -0.839590000  -1.284090000  -0.017130000
| 33> O   1.752130000   0.741530000  -2.896280000
| 34> H   2.036450000   0.920500000  -1.984040000
| 35> H   0.921210000   1.242140000  -2.984230000
| 36> O  -0.923410000   1.794470000  -2.768350000
| 37> H  -1.359750000   2.338250000  -3.430940000
| 38> H  -1.303000000   0.879480000  -2.865760000
| 39> O  -0.741530000   1.752130000   2.896280000
| 40> H  -0.920500000   2.036450000   1.984040000
| 41> H  -1.242140000   0.921210000   2.984230000
| 42> *
| 43>
| 44>                          ****END OF INPUT****

CARTESIAN COORDINATES (ANGSTROEM)
---------------------------------
  O      1.794470    0.923410    2.768350
  H      2.338250    1.359750    3.430940
  H      0.879480    1.303000    2.865760
  O      0.923410   -1.794470   -2.768350
  H      1.359750   -2.338250   -3.430940
  H      1.303000   -0.879480   -2.865760
  O     -0.885520    1.737840    0.052730
  H     -1.032320    2.090180   -0.841890
  H     -1.284090    0.839590    0.017130
  O      0.885520   -1.737840    0.052730
  H      1.284090   -0.839590    0.017130
  H      1.032320   -2.090180   -0.841890
  O      1.737840    0.885520   -0.052730
  H      2.090180    1.032320    0.841890
  H      0.839590    1.284090   -0.017130
  O     -1.737840   -0.885520   -0.052730
  H     -2.090180   -1.032320    0.841890
  H     -0.839590   -1.284090   -0.017130
  O      1.752130    0.741530   -2.896280
  H      2.036450    0.920500   -1.984040
  H      0.921210    1.242140   -2.984230
  O     -0.923410    1.794470   -2.768350
  H     -1.359750    2.338250   -3.430940
  H     -1.303000    0.879480   -2.865760
  O     -0.741530    1.752130    2.896280
  H     -0.920500    2.036450    1.984040
  H     -1.242140    0.921210    2.984230

 Total Charge           Charge          ....    0
 Multiplicity           Mult            ....    1
 Number of Electrons    NEL             ....   90
 Basis Dimension        Dim             ....  387

ORBITAL ENERGIES
----------------

  NO   OCC          E(Eh)            E(eV)
   0   2.0000     -20.621164      -561.1304
   1   2.0000     -20.579696      -560.0020
   2   2.0000     -20.569663      -559.7290
   3   2.0000     -20.563121      -559.5510
   4   2.0000     -20.550760      -559.2146
   5   2.0000     -20.545069      -559.0598
   6   2.0000     -20.539322      -558.9034
   7   2.0000     -20.534869      -558.7822
   8   2.0000     -20.519665      -558.3685
   9   2.0000      -1.401896       -38.1475
  10   2.0000      -1.373121       -37.3645
  11   2.0000      -1.362876       -37.0858
  12   2.0000      -1.347915       -36.6786
  13   2.0000      -1.345789       -36.6208
  14   2.0000      -1.335500       -36.3408
  15   2.0000      -1.320386       -35.9295
  16   2.0000      -1.318625       -35.8816
  17   2.0000      -1.302234       -35.4356
  18   2.0000      -0.767129       -20.8746
  19   2.0000      -0.738201       -20.0875
  20   2.0000      -0.724270       -19.7084
  21   2.0000      -0.716065       -19.4851
  22   2.0000      -0.713006       -19.4019
  23   2.0000      -0.706929       -19.2365
  24   2.0000      -0.704273       -19.1642
  25   2.0000      -0.700515       -19.0620
  26   2.0000      -0.680907       -18.5284
  27   2.0000      -0.650552       -17.7024
  28   2.0000      -0.626532       -17.0488
  29   2.0000      -0.611763       -16.6469
  30   2.0000      -0.602606       -16.3977
  31   2.0000      -0.588585       -16.0162
  32   2.0000      -0.582285       -15.8448
  33   2.0000      -0.572376       -15.5751
  34   2.0000      -0.561024       -15.2662
  35   2.0000      -0.550613       -14.9829
  36   2.0000      -0.538602       -14.6561
  37   2.0000      -0.516547       -14.0560
  38   2.0000      -0.512689       -13.9510
  39   2.0000      -0.508616       -13.8401
  40   2.0000      -0.495512       -13.4836
  41   2.0000      -0.489561       -13.3216
  42   2.0000      -0.488153       -13.2833
  43   2.0000      -0.483213       -13.1489
  44   2.0000      -0.469569       -12.7776
  45   0.0000       0.092085         2.5058
  46   0.0000       0.110319         3.0019
  47   0.0000       0.153703         4.1825
  48   0.0000       0.155696         4.2367
  49   0.0000       0.183588         4.9957

MULLIKEN ATOMIC CHARGES
-----------------------
   0 O :   -0.735657
   1 H :    0.335487
   2 H :    0.373745
   3 O :   -0.746218
   4 H :    0.334795
   5 H :    0.371103
   6 O :   -0.755773
   7 H :    0.382432
   8 H :    0.355047
   9 O :   -0.739047
  10 H :    0.366875
  11 H :    0.374934
  12 O :   -0.761688
  13 H :    0.386088
  14 H :    0.356655
  15 O :   -0.720010
  16 H :    0.337106
  17 H :    0.382943
  18 O :   -0.718138
  19 H :    0.390209
  20 H :    0.361125
  21 O :   -0.727747
  22 H :    0.367870
  23 H :    0.387627
  24 O :   -0.693272
  25 H :    0.390831
  26 H :    0.342678
Sum of atomic charges:   -0.0000000

LOEWDIN ATOMIC CHARGES
----------------------
   0 O :   -0.339357
   1 H :    0.153508
   2 H :    0.144667
   3 O :   -0.346297
   4 H :    0.152455
   5 H :    0.143061
   6 O :   -0.304213
   7 H :    0.152283
   8 H :    0.140058
   9 O :   -0.318235
  10 H :    0.140331
  11 H :    0.148813
  12 O :   -0.304962
  13 H :    0.154480
  14 H :    0.139144
  15 O :   -0.312372
  16 H :    0.160464
  17 H :    0.148240
  18 O :   -0.287029
  19 H :    0.156898
  20 H :    0.146806
  21 O :   -0.288657
  22 H :    0.169955
  23 H :    0.198369
  24 O :   -0.275110
  25 H :    0.158444
  26 H :    0.168256

  Mayer bond orders larger than 0.100000
B(  0-O ,  1-H ) :   0.8515 B(  0-O ,  2-H ) :   0.7609 B(  3-O ,  4-H ) :   0.8516
B(  3-O ,  5-H ) :   0.7495 B(  5-H , 18-O ) :   0.1122 B(  6-O ,  7-H ) :   0.8046
B(  6-O ,  8-H ) :   0.7515 B(  8-H , 15-O ) :   0.1258 B(  9-O , 10-H ) :   0.7785
B(  9-O , 11-H ) :   0.8008 B(  9-O , 17-H ) :   0.1327 B( 12-O , 13-H ) :   0.7872
B( 12-O , 14-H ) :   0.7705 B( 15-O , 16-H ) :   0.8491 B( 15-O , 17-H ) :   0.7384
B( 18-O , 19-H ) :   0.7953 B( 18-O , 20-H ) :   0.8166 B( 21-O , 22-H ) :   0.8302
B( 21-O , 23-H ) :   0.8072 B( 24-O , 25-H ) :   0.7953 B( 24-O , 26-H ) :   0.8450

MP2 TOTAL ENERGY:     -686.933866344 Eh
FINAL SINGLE POINT ENERGY      -686.933866343597

DIPOLE MOMENT
-------------
                                X             Y             Z
Electronic contribution:     -0.05621       0.27823      -0.07400
Nuclear contribution   :     -1.32960       0.78984      -0.63259
                        -----------------------------------------
Total Dipole Moment    :     -1.38581       1.06807      -0.70659
                        -----------------------------------------
Magnitude (a.u.)       :      1.88693
Magnitude (Debye)      :      4.79621

Rotational constants in cm-1:     0.030247     0.017185     0.015831
Rotational constants in MHz :   906.785263   515.187736   474.591087

                             ****ORCA TERMINATED NORMALLY****
TOTAL RUN TIME: 0 days 0 hours 7 minutes 11 seconds 813 msec
