                         Program Version 4.2.0 -  RELEASE  -
|  1> # 12h2o.su.etal.mol0,3,4,5,8,9,10
|  2> ! MP2 def2-TZVP EnGrad TightSCF
|  3>
|  4> %pal
|  5>     nprocs 6
|  6> end
|  7>
|  8> %maxcore 8000
|  9>
| 10> %scf
| 11>     ConvForced true
| 12> end
| 13>
| 14> *xyz 0 1
| 15> O   1.794470000   0.923410000   2.768350000
| 16> H   2.338250000   1.359750000   3.430940000
| 17> H   0.879480000   1.303000000   2.865760000
| 18> O  -1.752130000  -0.741530000  -2.896280000
| 19> H  -2.036450000  -0.920500000  -1.984040000
| 20> H  -0.921210000  -1.242140000  -2.984230000
| 21> O  -0.885520000   1.737840000   0.052730000
| 22> H  -1.032320000   2.090180000  -0.841890000
| 23> H  -1.284090000   0.839590000   0.017130000
| 24> O   0.885520000  -1.737840000   0.052730000
| 25> H   1.284090000  -0.839590000   0.017130000
| 26> H   1.032320000  -2.090180000  -0.841890000
| 27> O   1.752130000   0.741530000  -2.896280000
| 28> H   2.036450000   0.920500000  -1.984040000
| 29> H   0.921210000   1.242140000  -2.984230000
| 30> O   0.741530000  -1.752130000   2.896280000
| 31> H   0.920500000  -2.036450000   1.984040000
| 32> H   1.242140000  -0.921210000   2.984230000
| 33> O  -0.923410000   1.794470000  -2.768350000
| 34> H  -1.359750000   2.338250000  -3.430940000
| 35> H  -1.303000000   0.879480000  -2.865760000
| 36> *
| 37>
| 38>                          ****END OF INPUT****

CARTESIAN COORDINATES (ANGSTROEM)
---------------------------------
  O      1.794470    0.923410    2.768350
  H      2.338250    1.359750    3.430940
  H      0.879480    1.303000    2.865760
  O     -1.752130   -0.741530   -2.896280
  H     -2.036450   -0.920500   -1.984040
  H     -0.921210   -1.242140   -2.984230
  O     -0.885520    1.737840    0.052730
  H     -1.032320    2.090180   -0.841890
  H     -1.284090    0.839590    0.017130
  O      0.885520   -1.737840    0.052730
  H      1.284090   -0.839590    0.017130
  H      1.032320   -2.090180   -0.841890
  O      1.752130    0.741530   -2.896280
  H      2.036450    0.920500   -1.984040
  H      0.921210    1.242140   -2.984230
  O      0.741530   -1.752130    2.896280
  H      0.920500   -2.036450    1.984040
  H      1.242140   -0.921210    2.984230
  O     -0.923410    1.794470   -2.768350
  H     -1.359750    2.338250   -3.430940
  H     -1.303000    0.879480   -2.865760

 Total Charge           Charge          ....    0
 Multiplicity           Mult            ....    1
 Number of Electrons    NEL             ....   70
 Basis Dimension        Dim             ....  301

ORBITAL ENERGIES
----------------

  NO   OCC          E(Eh)            E(eV)
   0   2.0000     -20.622255      -561.1601
   1   2.0000     -20.588792      -560.2495
   2   2.0000     -20.581125      -560.0409
   3   2.0000     -20.579666      -560.0012
   4   2.0000     -20.551264      -559.2283
   5   2.0000     -20.550083      -559.1962
   6   2.0000     -20.502513      -557.9017
   7   2.0000      -1.408511       -38.3275
   8   2.0000      -1.367607       -37.2145
   9   2.0000      -1.366911       -37.1955
  10   2.0000      -1.357326       -36.9347
  11   2.0000      -1.332075       -36.2476
  12   2.0000      -1.329536       -36.1785
  13   2.0000      -1.287883       -35.0451
  14   2.0000      -0.764433       -20.8013
  15   2.0000      -0.749588       -20.3973
  16   2.0000      -0.728908       -19.8346
  17   2.0000      -0.724287       -19.7089
  18   2.0000      -0.701796       -19.0969
  19   2.0000      -0.698710       -19.0129
  20   2.0000      -0.666809       -18.1448
  21   2.0000      -0.650175       -17.6922
  22   2.0000      -0.612191       -16.6586
  23   2.0000      -0.610548       -16.6139
  24   2.0000      -0.591055       -16.0834
  25   2.0000      -0.582282       -15.8447
  26   2.0000      -0.569084       -15.4856
  27   2.0000      -0.551238       -14.9999
  28   2.0000      -0.540982       -14.7209
  29   2.0000      -0.528440       -14.3796
  30   2.0000      -0.524329       -14.2677
  31   2.0000      -0.508532       -13.8379
  32   2.0000      -0.497903       -13.5486
  33   2.0000      -0.495869       -13.4933
  34   2.0000      -0.452501       -12.3132
  35   0.0000       0.071037         1.9330
  36   0.0000       0.118817         3.2332
  37   0.0000       0.127595         3.4720
  38   0.0000       0.136375         3.7110
  39   0.0000       0.151781         4.1302

MULLIKEN ATOMIC CHARGES
-----------------------
   0 O :   -0.701818
   1 H :    0.350614
   2 H :    0.370235
   3 O :   -0.679871
   4 H :    0.361115
   5 H :    0.367367
   6 O :   -0.697140
   7 H :    0.368907
   8 H :    0.317213
   9 O :   -0.698278
  10 H :    0.355778
  11 H :    0.341071
  12 O :   -0.712239
  13 H :    0.330661
  14 H :    0.364570
  15 O :   -0.725885
  16 H :    0.361566
  17 H :    0.342530
  18 O :   -0.750591
  19 H :    0.353954
  20 H :    0.380242
Sum of atomic charges:    0.0000000

LOEWDIN ATOMIC CHARGES
----------------------
   0 O :   -0.313708
   1 H :    0.162550
   2 H :    0.191289
   3 O :   -0.263973
   4 H :    0.174120
   5 H :    0.178285
   6 O :   -0.345285
   7 H :    0.148800
   8 H :    0.158497
   9 O :   -0.316346
  10 H :    0.175577
  11 H :    0.164101
  12 O :   -0.346958
  13 H :    0.158295
  14 H :    0.147551
  15 O :   -0.356075
  16 H :    0.148233
  17 H :    0.140913
  18 O :   -0.312294
  19 H :    0.160975
  20 H :    0.145454

  Mayer bond orders larger than 0.100000
B(  0-O ,  1-H ) :   0.8428 B(  0-O ,  2-H ) :   0.8226 B(  3-O ,  4-H ) :   0.8337
B(  3-O ,  5-H ) :   0.8269 B(  6-O ,  7-H ) :   0.8133 B(  6-O ,  8-H ) :   0.8584
B(  9-O , 10-H ) :   0.8282 B(  9-O , 11-H ) :   0.8451 B( 12-O , 13-H ) :   0.8549
B( 12-O , 14-H ) :   0.8097 B( 15-O , 16-H ) :   0.8321 B( 15-O , 17-H ) :   0.8294
B( 18-O , 19-H ) :   0.8382 B( 18-O , 20-H ) :   0.7511

MP2 TOTAL ENERGY:     -534.236770020 Eh
FINAL SINGLE POINT ENERGY      -534.236770020253

DIPOLE MOMENT
-------------
                                X             Y             Z
Electronic contribution:     -0.13775      -0.12317      -0.20498
Nuclear contribution   :     -0.42247       0.82514      -0.86245
                        -----------------------------------------
Total Dipole Moment    :     -0.56022       0.70197      -1.06744
                        -----------------------------------------
Magnitude (a.u.)       :      1.39500
Magnitude (Debye)      :      3.54580

Rotational constants in cm-1:     0.044432     0.017650     0.016374
Rotational constants in MHz :  1332.038046   529.134950   490.887474

                             ****ORCA TERMINATED NORMALLY****
TOTAL RUN TIME: 0 days 0 hours 1 minutes 40 seconds 202 msec
