                         Program Version 4.2.0 -  RELEASE  -
|  1> # 12meoh.boyd.etal.mol0,1
|  2> ! MP2 def2-TZVP EnGrad TightSCF
|  3>
|  4> %pal
|  5>     nprocs 6
|  6> end
|  7>
|  8> %maxcore 8000
|  9>
| 10> %scf
| 11>     ConvForced true
| 12> end
| 13>
| 14> *xyz 0 1
| 15> O  -1.776108874  -2.741384797  -1.019308298
| 16> H  -2.520094035  -2.452295987  -0.420778302
| 17> C  -2.174025166  -3.952700964  -1.647004581
| 18> H  -1.359803895  -4.272673416  -2.304149236
| 19> H  -3.075973971  -3.808692420  -2.256751112
| 20> H  -2.370225393  -4.752784761  -0.918966137
| 21> O   0.666045193  -2.600503172   0.138317521
| 22> H  -0.227115049  -2.712051982  -0.281868004
| 23> C   0.490021232  -1.851247678   1.341189459
| 24> H   1.466500502  -1.466176022   1.645844415
| 25> H   0.097564527  -2.488364683   2.146902740
| 26> H  -0.187588112  -1.000787499   1.200739571
| 27> *
| 28>
| 29>                          ****END OF INPUT****

CARTESIAN COORDINATES (ANGSTROEM)
---------------------------------
  O     -1.776109   -2.741385   -1.019308
  H     -2.520094   -2.452296   -0.420778
  C     -2.174025   -3.952701   -1.647005
  H     -1.359804   -4.272673   -2.304149
  H     -3.075974   -3.808692   -2.256751
  H     -2.370225   -4.752785   -0.918966
  O      0.666045   -2.600503    0.138318
  H     -0.227115   -2.712052   -0.281868
  C      0.490021   -1.851248    1.341189
  H      1.466501   -1.466176    1.645844
  H      0.097565   -2.488365    2.146903
  H     -0.187588   -1.000787    1.200740

 Total Charge           Charge          ....    0
 Multiplicity           Mult            ....    1
 Number of Electrons    NEL             ....   36
 Basis Dimension        Dim             ....  172

ORBITAL ENERGIES
----------------

  NO   OCC          E(Eh)            E(eV)
   0   2.0000     -20.591055      -560.3111
   1   2.0000     -20.513888      -558.2113
   2   2.0000     -11.290329      -307.2255
   3   2.0000     -11.251385      -306.1658
   4   2.0000      -1.383669       -37.6515
   5   2.0000      -1.309492       -35.6331
   6   2.0000      -0.941769       -25.6268
   7   2.0000      -0.897796       -24.4303
   8   2.0000      -0.715937       -19.4816
   9   2.0000      -0.672291       -18.2940
  10   2.0000      -0.636091       -17.3089
  11   2.0000      -0.610456       -16.6113
  12   2.0000      -0.591746       -16.1022
  13   2.0000      -0.561573       -15.2812
  14   2.0000      -0.528321       -14.3764
  15   2.0000      -0.486902       -13.2493
  16   2.0000      -0.459357       -12.4997
  17   2.0000      -0.417456       -11.3596
  18   0.0000       0.114340         3.1113
  19   0.0000       0.156520         4.2591
  20   0.0000       0.181154         4.9295
  21   0.0000       0.209863         5.7107
  22   0.0000       0.218669         5.9503

MULLIKEN ATOMIC CHARGES
-----------------------
   0 O :   -0.517868
   1 H :    0.340002
   2 C :   -0.185078
   3 H :    0.149046
   4 H :    0.123830
   5 H :    0.124281
   6 O :   -0.527874
   7 H :    0.355518
   8 C :   -0.178703
   9 H :    0.123293
  10 H :    0.096096
  11 H :    0.097456
Sum of atomic charges:   -0.0000000

LOEWDIN ATOMIC CHARGES
----------------------
   0 O :   -0.076943
   1 H :    0.200676
   2 C :   -0.374093
   3 H :    0.117773
   4 H :    0.103451
   5 H :    0.101369
   6 O :   -0.125955
   7 H :    0.160347
   8 C :   -0.393096
   9 H :    0.105826
  10 H :    0.090170
  11 H :    0.090475

  Mayer bond orders larger than 0.100000
B(  0-O ,  1-H ) :   0.8282 B(  0-O ,  2-C ) :   0.8738 B(  2-C ,  3-H ) :   0.9387
B(  2-C ,  4-H ) :   0.9340 B(  2-C ,  5-H ) :   0.9374 B(  6-O ,  7-H ) :   0.7947
B(  6-O ,  8-C ) :   0.9458 B(  8-C ,  9-H ) :   0.9427 B(  8-C , 10-H ) :   0.9361
B(  8-C , 11-H ) :   0.9406

MP2 TOTAL ENERGY:     -231.021329598 Eh
FINAL SINGLE POINT ENERGY      -231.021329598320

DIPOLE MOMENT
-------------
                                X             Y             Z
Electronic contribution:      0.72153       0.44452      -1.03756
Nuclear contribution   :     -2.25208      -0.64765       1.10155
                        -----------------------------------------
Total Dipole Moment    :     -1.53055      -0.20313       0.06400
                        -----------------------------------------
Magnitude (a.u.)       :      1.54529
Magnitude (Debye)      :      3.92782

Rotational constants in cm-1:     0.667499     0.077934     0.073594
Rotational constants in MHz : 20011.127619  2336.400264  2206.304991

                             ****ORCA TERMINATED NORMALLY****
TOTAL RUN TIME: 0 days 0 hours 0 minutes 25 seconds 191 msec
