                         Program Version 4.2.0 -  RELEASE  -
|  1> # 12meoh.boyd.etal.mol4,5,9
|  2> ! MP2 def2-TZVP EnGrad TightSCF
|  3>
|  4> %pal
|  5>     nprocs 6
|  6> end
|  7>
|  8> %maxcore 8000
|  9>
| 10> %scf
| 11>     ConvForced true
| 12> end
| 13>
| 14> *xyz 0 1
| 15> O  -1.358578914   1.232360421   1.189721000
| 16> H  -1.058250183   1.216459361   0.238591307
| 17> C  -0.389763452   1.957872567   1.943072362
| 18> H  -0.747220771   2.012806578   2.975200343
| 19> H  -0.260410585   2.982763209   1.565366540
| 20> H   0.585220638   1.453754179   1.934070793
| 21> O  -0.662721750   1.449094618  -1.383082065
| 22> H   0.064188300   2.119867608  -1.465650660
| 23> C  -0.353319239   0.341218776  -2.229326771
| 24> H  -1.072358530  -0.454743281  -2.019906495
| 25> H   0.657636746  -0.044472139  -2.042736771
| 26> H  -0.434616607   0.624733901  -3.287793021
| 27> O   1.390610024   3.194080770  -1.536658882
| 28> H   2.162932299   2.881562730  -0.993525056
| 29> C   1.202977189   4.580367182  -1.302880219
| 30> H   0.374773115   4.915764831  -1.934164643
| 31> H   2.098649340   5.157710875  -1.570472348
| 32> H   0.950320401   4.800436015  -0.254328827
| 33> *
| 34>
| 35>                          ****END OF INPUT****

CARTESIAN COORDINATES (ANGSTROEM)
---------------------------------
  O     -1.358579    1.232360    1.189721
  H     -1.058250    1.216459    0.238591
  C     -0.389763    1.957873    1.943072
  H     -0.747221    2.012807    2.975200
  H     -0.260411    2.982763    1.565367
  H      0.585221    1.453754    1.934071
  O     -0.662722    1.449095   -1.383082
  H      0.064188    2.119868   -1.465651
  C     -0.353319    0.341219   -2.229327
  H     -1.072359   -0.454743   -2.019906
  H      0.657637   -0.044472   -2.042737
  H     -0.434617    0.624734   -3.287793
  O      1.390610    3.194081   -1.536659
  H      2.162932    2.881563   -0.993525
  C      1.202977    4.580367   -1.302880
  H      0.374773    4.915765   -1.934165
  H      2.098649    5.157711   -1.570472
  H      0.950320    4.800436   -0.254329

 Total Charge           Charge          ....    0
 Multiplicity           Mult            ....    1
 Number of Electrons    NEL             ....   54
 Basis Dimension        Dim             ....  258

ORBITAL ENERGIES
----------------

  NO   OCC          E(Eh)            E(eV)
   0   2.0000     -20.601858      -560.6051
   1   2.0000     -20.547364      -559.1222
   2   2.0000     -20.504588      -557.9582
   3   2.0000     -11.298160      -307.4386
   4   2.0000     -11.269376      -306.6553
   5   2.0000     -11.248803      -306.0955
   6   2.0000      -1.396143       -37.9910
   7   2.0000      -1.347155       -36.6579
   8   2.0000      -1.300163       -35.3792
   9   2.0000      -0.951067       -25.8799
  10   2.0000      -0.919794       -25.0289
  11   2.0000      -0.893275       -24.3072
  12   2.0000      -0.729634       -19.8543
  13   2.0000      -0.696809       -18.9611
  14   2.0000      -0.662849       -18.0370
  15   2.0000      -0.645756       -17.5719
  16   2.0000      -0.624134       -16.9836
  17   2.0000      -0.611312       -16.6347
  18   2.0000      -0.589507       -16.0413
  19   2.0000      -0.584054       -15.8929
  20   2.0000      -0.555020       -15.1029
  21   2.0000      -0.539259       -14.6740
  22   2.0000      -0.504511       -13.7284
  23   2.0000      -0.483478       -13.1561
  24   2.0000      -0.466087       -12.6829
  25   2.0000      -0.438235       -11.9250
  26   2.0000      -0.410349       -11.1662
  27   0.0000       0.104177         2.8348
  28   0.0000       0.147281         4.0077
  29   0.0000       0.166351         4.5267
  30   0.0000       0.176781         4.8104
  31   0.0000       0.198377         5.3981

MULLIKEN ATOMIC CHARGES
-----------------------
   0 O :   -0.525407
   1 H :    0.356363
   2 C :   -0.176094
   3 H :    0.123617
   4 H :    0.084291
   5 H :    0.088145
   6 O :   -0.552316
   7 H :    0.368820
   8 C :   -0.170226
   9 H :    0.139608
  10 H :    0.104477
  11 H :    0.117246
  12 O :   -0.530503
  13 H :    0.346521
  14 C :   -0.180173
  15 H :    0.147452
  16 H :    0.130305
  17 H :    0.127872
Sum of atomic charges:   -0.0000000

LOEWDIN ATOMIC CHARGES
----------------------
   0 O :   -0.124777
   1 H :    0.159959
   2 C :   -0.401001
   3 H :    0.106008
   4 H :    0.086402
   5 H :    0.086975
   6 O :   -0.087674
   7 H :    0.163861
   8 C :   -0.377961
   9 H :    0.112122
  10 H :    0.095658
  11 H :    0.101806
  12 O :   -0.074887
  13 H :    0.201410
  14 C :   -0.372930
  15 H :    0.117762
  16 H :    0.105361
  17 H :    0.101906

  Mayer bond orders larger than 0.100000
B(  0-O ,  1-H ) :   0.7776 B(  0-O ,  2-C ) :   0.9593 B(  2-C ,  3-H ) :   0.9418
B(  2-C ,  4-H ) :   0.9379 B(  2-C ,  5-H ) :   0.9382 B(  6-O ,  7-H ) :   0.7661
B(  6-O ,  8-C ) :   0.8892 B(  8-C ,  9-H ) :   0.9412 B(  8-C , 10-H ) :   0.9380
B(  8-C , 11-H ) :   0.9384 B( 12-O , 13-H ) :   0.8245 B( 12-O , 14-C ) :   0.8650
B( 14-C , 15-H ) :   0.9391 B( 14-C , 16-H ) :   0.9363 B( 14-C , 17-H ) :   0.9349

MP2 TOTAL ENERGY:     -346.541171170 Eh
FINAL SINGLE POINT ENERGY      -346.541171170417

DIPOLE MOMENT
-------------
                                X             Y             Z
Electronic contribution:     -1.46682      -1.09470      -0.53904
Nuclear contribution   :      3.24958       1.99567      -0.14591
                        -----------------------------------------
Total Dipole Moment    :      1.78276       0.90097      -0.68495
                        -----------------------------------------
Magnitude (a.u.)       :      2.11166
Magnitude (Debye)      :      5.36742

Rotational constants in cm-1:     0.078615     0.051655     0.033410
Rotational constants in MHz :  2356.826362  1548.580549  1001.604419

                             ****ORCA TERMINATED NORMALLY****
TOTAL RUN TIME: 0 days 0 hours 1 minutes 30 seconds 894 msec
