                         Program Version 3.0.3 - RELEASE   -
|  1> ! wB97X-D3 MA-Def2-TZVP def2-TZVP/J RIJCOSX TightSCF Grid4
|  2>
|  3> %pal nprocs 1 end
|  4>
|  5> %scf
|  6>         maxiter 400
|  7> end
|  8>
|  9> * xyz  0  1
| 10> O  1.634229	-2.591927	2.215864
| 11> H  1.120775	-2.859767	1.401502
| 12> H  0.979530	-2.091298	2.779809
| 13> O  2.583728	0.263933	-0.496517
| 14> H  2.514829	1.272150	-0.429770
| 15> H  3.046057	-0.098151	0.323547
| 16> O  1.151428	-3.001516	-2.552452
| 17> H  1.575141	-2.054950	-2.734158
| 18> H  1.712863	-3.650860	-3.012825
| 19> O  1.158358	3.018337	1.937672
| 20> H  1.476663	2.225924	2.505456
| 21> H  0.165332	3.005897	1.982837
| 22> O  2.000654	1.001483	3.363536
| 23> H  2.611593	0.416059	2.837992
| 24> H  1.276120	0.372872	3.622655
| 25> O  -3.210371	0.894350	-1.604123
| 26> H  -2.376857	0.661976	-2.091245
| 27> H  -2.985289	1.782509	-1.221680
| 28> O  1.986922	-0.640694	-2.947194
| 29> H  2.368953	-0.323880	-2.077087
| 30> H  1.099098	-0.187738	-2.969553
| 31> O  -1.504085	0.167988	1.887947
| 32> H  -1.611926	1.163615	1.956852
| 33> H  -0.842609	0.037256	1.117323
| 34> O  -3.401870	-0.944221	0.255880
| 35> H  -2.809833	-0.569581	0.965463
| 36> H  -3.395540	-0.218344	-0.462994
| 37> O  -1.572278	2.848356	1.831452
| 38> H  -2.156687	3.372648	2.408613
| 39> H  -1.836337	3.082612	0.863374
| 40> O  1.940867	2.790868	-0.403854
| 41> H  1.588780	2.908592	0.619420
| 42> H  2.586664	3.507298	-0.549040
| 43> O  0.094597	-0.387419	-0.056595
| 44> H  0.156416	-1.409261	-0.038805
| 45> H  1.069035	-0.095269	-0.137116
| 46> O  0.233809	-2.993957	-0.069333
| 47> H  -0.753506	-3.137649	-0.245173
| 48> H  0.672546	-3.124176	-0.967774
| 49> O  -1.365681	-2.154542	-3.214815
| 50> H  -1.826472	-2.464950	-2.381432
| 51> H  -0.482386	-2.608767	-3.148187
| 52> O  -0.645561	0.217915	-2.530957
| 53> H  -0.974428	-0.695532	-2.908610
| 54> H  -0.442894	-0.000339	-1.564574
| 55> O  3.349780	-0.785543	1.782081
| 56> H  4.226625	-1.126184	2.036221
| 57> H  2.672341	-1.584557	1.933003
| 58> O  -0.155356	2.850637	-2.083962
| 59> H  -0.288142	1.924302	-2.429965
| 60> H  0.669205	2.824601	-1.506897
| 61> O  0.044566	-0.906494	3.638448
| 62> H  -0.439724	-1.173271	4.440632
| 63> H  -0.652885	-0.487744	3.006615
| 64> O  -2.149202	3.253625	-0.639915
| 65> H  -1.272794	3.118449	-1.255458
| 66> H  -2.558366	4.082127	-0.951166
| 67> O  -2.290513	-2.930030	-0.773754
| 68> H  -2.775653	-2.081835	-0.311909
| 69> H  -2.941656	-3.654791	-0.742939
| 70> **                         ****END OF INPUT****

CARTESIAN COORDINATES (ANGSTROEM)
---------------------------------
  O      1.634229   -2.591927    2.215864
  H      1.120775   -2.859767    1.401502
  H      0.979530   -2.091298    2.779809
  O      2.583728    0.263933   -0.496517
  H      2.514829    1.272150   -0.429770
  H      3.046057   -0.098151    0.323547
  O      1.151428   -3.001516   -2.552452
  H      1.575141   -2.054950   -2.734158
  H      1.712863   -3.650860   -3.012825
  O      1.158358    3.018337    1.937672
  H      1.476663    2.225924    2.505456
  H      0.165332    3.005897    1.982837
  O      2.000654    1.001483    3.363536
  H      2.611593    0.416059    2.837992
  H      1.276120    0.372872    3.622655
  O     -3.210371    0.894350   -1.604123
  H     -2.376857    0.661976   -2.091245
  H     -2.985289    1.782509   -1.221680
  O      1.986922   -0.640694   -2.947194
  H      2.368953   -0.323880   -2.077087
  H      1.099098   -0.187738   -2.969553
  O     -1.504085    0.167988    1.887947
  H     -1.611926    1.163615    1.956852
  H     -0.842609    0.037256    1.117323
  O     -3.401870   -0.944221    0.255880
  H     -2.809833   -0.569581    0.965463
  H     -3.395540   -0.218344   -0.462994
  O     -1.572278    2.848356    1.831452
  H     -2.156687    3.372648    2.408613
  H     -1.836337    3.082612    0.863374
  O      1.940867    2.790868   -0.403854
  H      1.588780    2.908592    0.619420
  H      2.586664    3.507298   -0.549040
  O      0.094597   -0.387419   -0.056595
  H      0.156416   -1.409261   -0.038805
  H      1.069035   -0.095269   -0.137116
  O      0.233809   -2.993957   -0.069333
  H     -0.753506   -3.137649   -0.245173
  H      0.672546   -3.124176   -0.967774
  O     -1.365681   -2.154542   -3.214815
  H     -1.826472   -2.464950   -2.381432
  H     -0.482386   -2.608767   -3.148187
  O     -0.645561    0.217915   -2.530957
  H     -0.974428   -0.695532   -2.908610
  H     -0.442894   -0.000339   -1.564574
  O      3.349780   -0.785543    1.782081
  H      4.226625   -1.126184    2.036221
  H      2.672341   -1.584557    1.933003
  O     -0.155356    2.850637   -2.083962
  H     -0.288142    1.924302   -2.429965
  H      0.669205    2.824601   -1.506897
  O      0.044566   -0.906494    3.638448
  H     -0.439724   -1.173271    4.440632
  H     -0.652885   -0.487744    3.006615
  O     -2.149202    3.253625   -0.639915
  H     -1.272794    3.118449   -1.255458
  H     -2.558366    4.082127   -0.951166
  O     -2.290513   -2.930030   -0.773754
  H     -2.775653   -2.081835   -0.311909
  H     -2.941656   -3.654791   -0.742939

 Total Charge           Charge          ....    0
 Multiplicity           Mult            ....    1
 Number of Electrons    NEL             ....  200
 Basis Dimension        Dim             ....  940

ORBITAL ENERGIES
----------------

  NO   OCC          E(Eh)            E(eV)
   0   2.0000     -19.265100      -524.2300
   1   2.0000     -19.254895      -523.9523
   2   2.0000     -19.253959      -523.9269
   3   2.0000     -19.248585      -523.7806
   4   2.0000     -19.247966      -523.7638
   5   2.0000     -19.245207      -523.6887
   6   2.0000     -19.240838      -523.5698
   7   2.0000     -19.240717      -523.5665
   8   2.0000     -19.240077      -523.5491
   9   2.0000     -19.238568      -523.5081
  10   2.0000     -19.238425      -523.5042
  11   2.0000     -19.237523      -523.4796
  12   2.0000     -19.233682      -523.3751
  13   2.0000     -19.233642      -523.3740
  14   2.0000     -19.229504      -523.2614
  15   2.0000     -19.228098      -523.2231
  16   2.0000     -19.223535      -523.0990
  17   2.0000     -19.223115      -523.0876
  18   2.0000     -19.221471      -523.0428
  19   2.0000     -19.221317      -523.0386
  20   2.0000      -1.161348       -31.6019
  21   2.0000      -1.154377       -31.4122
  22   2.0000      -1.148445       -31.2508
  23   2.0000      -1.144219       -31.1358
  24   2.0000      -1.140866       -31.0445
  25   2.0000      -1.137870       -30.9630
  26   2.0000      -1.136183       -30.9171
  27   2.0000      -1.132458       -30.8157
  28   2.0000      -1.127412       -30.6784
  29   2.0000      -1.122291       -30.5391
  30   2.0000      -1.118500       -30.4359
  31   2.0000      -1.117623       -30.4121
  32   2.0000      -1.114216       -30.3194
  33   2.0000      -1.112179       -30.2639
  34   2.0000      -1.108051       -30.1516
  35   2.0000      -1.101882       -29.9837
  36   2.0000      -1.099051       -29.9067
  37   2.0000      -1.095168       -29.8010
  38   2.0000      -1.089289       -29.6411
  39   2.0000      -1.088177       -29.6108
  40   2.0000      -0.669817       -18.2267
  41   2.0000      -0.661483       -17.9999
  42   2.0000      -0.659418       -17.9437
  43   2.0000      -0.653737       -17.7891
  44   2.0000      -0.652155       -17.7460
  45   2.0000      -0.651236       -17.7210
  46   2.0000      -0.648707       -17.6522
  47   2.0000      -0.647229       -17.6120
  48   2.0000      -0.643701       -17.5160
  49   2.0000      -0.641874       -17.4663
  50   2.0000      -0.636316       -17.3150
  51   2.0000      -0.634902       -17.2766
  52   2.0000      -0.633129       -17.2283
  53   2.0000      -0.629221       -17.1220
  54   2.0000      -0.627285       -17.0693
  55   2.0000      -0.621907       -16.9229
  56   2.0000      -0.620503       -16.8847
  57   2.0000      -0.618453       -16.8290
  58   2.0000      -0.615420       -16.7464
  59   2.0000      -0.610407       -16.6100
  60   2.0000      -0.579041       -15.7565
  61   2.0000      -0.573498       -15.6057
  62   2.0000      -0.562709       -15.3121
  63   2.0000      -0.557621       -15.1736
  64   2.0000      -0.552823       -15.0431
  65   2.0000      -0.548559       -14.9271
  66   2.0000      -0.529126       -14.3983
  67   2.0000      -0.528592       -14.3837
  68   2.0000      -0.514840       -14.0095
  69   2.0000      -0.510326       -13.8867
  70   2.0000      -0.508739       -13.8435
  71   2.0000      -0.495935       -13.4951
  72   2.0000      -0.493289       -13.4231
  73   2.0000      -0.492685       -13.4066
  74   2.0000      -0.486395       -13.2355
  75   2.0000      -0.484534       -13.1849
  76   2.0000      -0.475881       -12.9494
  77   2.0000      -0.471450       -12.8288
  78   2.0000      -0.467603       -12.7241
  79   2.0000      -0.449444       -12.2300
  80   2.0000      -0.444684       -12.1005
  81   2.0000      -0.435201       -11.8424
  82   2.0000      -0.432744       -11.7756
  83   2.0000      -0.431448       -11.7403
  84   2.0000      -0.429568       -11.6891
  85   2.0000      -0.428593       -11.6626
  86   2.0000      -0.426996       -11.6191
  87   2.0000      -0.425186       -11.5699
  88   2.0000      -0.423874       -11.5342
  89   2.0000      -0.423520       -11.5246
  90   2.0000      -0.422388       -11.4938
  91   2.0000      -0.419350       -11.4111
  92   2.0000      -0.417611       -11.3638
  93   2.0000      -0.414166       -11.2700
  94   2.0000      -0.413702       -11.2574
  95   2.0000      -0.409893       -11.1537
  96   2.0000      -0.406190       -11.0530
  97   2.0000      -0.405111       -11.0236
  98   2.0000      -0.401582       -10.9276
  99   2.0000      -0.400072       -10.8865
 100   0.0000       0.044925         1.2225
 101   0.0000       0.059514         1.6195
 102   0.0000       0.067828         1.8457
 103   0.0000       0.069396         1.8884
 104   0.0000       0.082738         2.2514

MULLIKEN ATOMIC CHARGES
-----------------------
   0 O :   -0.761180
   1 H :    0.428583
   2 H :    0.404448
   3 O :   -0.853153
   4 H :    0.431199
   5 H :    0.438526
   6 O :   -0.873244
   7 H :    0.423278
   8 H :    0.364961
   9 O :   -0.796528
  10 H :    0.463410
  11 H :    0.409035
  12 O :   -0.765971
  13 H :    0.403744
  14 H :    0.402769
  15 O :   -0.784356
  16 H :    0.409749
  17 H :    0.399103
  18 O :   -0.746139
  19 H :    0.430411
  20 H :    0.407698
  21 O :   -0.837541
  22 H :    0.440091
  23 H :    0.420640
  24 O :   -0.783785
  25 H :    0.402798
  26 H :    0.460265
  27 O :   -0.805528
  28 H :    0.363635
  29 H :    0.415378
  30 O :   -0.850568
  31 H :    0.435059
  32 H :    0.363638
  33 O :   -0.786568
  34 H :    0.360668
  35 H :    0.360331
  36 O :   -0.821118
  37 H :    0.437588
  38 H :    0.443486
  39 O :   -0.709055
  40 H :    0.401735
  41 H :    0.398466
  42 O :   -1.156911
  43 H :    0.519330
  44 H :    0.433114
  45 O :   -0.861536
  46 H :    0.364264
  47 H :    0.425613
  48 O :   -0.764896
  49 H :    0.452612
  50 H :    0.422356
  51 O :   -0.847871
  52 H :    0.363642
  53 H :    0.416337
  54 O :   -0.827100
  55 H :    0.426988
  56 H :    0.363155
  57 O :   -0.872934
  58 H :    0.435041
  59 H :    0.362840
Sum of atomic charges:   -0.0000000

LOEWDIN ATOMIC CHARGES
----------------------
   0 O :   -0.352959
   1 H :    0.201259
   2 H :    0.197999
   3 O :   -0.401403
   4 H :    0.193620
   5 H :    0.196282
   6 O :   -0.416935
   7 H :    0.191593
   8 H :    0.194648
   9 O :   -0.343280
  10 H :    0.198646
  11 H :    0.194186
  12 O :   -0.382124
  13 H :    0.196149
  14 H :    0.196124
  15 O :   -0.377431
  16 H :    0.196795
  17 H :    0.194064
  18 O :   -0.350467
  19 H :    0.200879
  20 H :    0.201981
  21 O :   -0.397947
  22 H :    0.196957
  23 H :    0.192339
  24 O :   -0.351313
  25 H :    0.196372
  26 H :    0.198031
  27 O :   -0.389270
  28 H :    0.198023
  29 H :    0.194673
  30 O :   -0.421988
  31 H :    0.185221
  32 H :    0.194786
  33 O :   -0.415168
  34 H :    0.192383
  35 H :    0.193435
  36 O :   -0.398270
  37 H :    0.199846
  38 H :    0.199791
  39 O :   -0.367342
  40 H :    0.197337
  41 H :    0.196327
  42 O :   -0.472721
  43 H :    0.197618
  44 H :    0.188556
  45 O :   -0.412801
  46 H :    0.194972
  47 H :    0.193112
  48 O :   -0.330546
  49 H :    0.205734
  50 H :    0.198923
  51 O :   -0.401878
  52 H :    0.196214
  53 H :    0.193455
  54 O :   -0.410625
  55 H :    0.188265
  56 H :    0.195804
  57 O :   -0.430902
  58 H :    0.189498
  59 H :    0.193473

  Mayer bond orders larger than 0.1
B(  0-O ,  1-H ) :   0.8267 B(  0-O ,  2-H ) :   0.8338 B(  0-O , 47-H ) :   0.1799
B(  3-O ,  4-H ) :   0.7767 B(  3-O ,  5-H ) :   0.7781 B(  3-O , 33-O ) :  -0.1567
B(  3-O , 35-H ) :   0.2261 B(  4-H , 30-O ) :   0.1007 B(  6-O ,  7-H ) :   0.6925
B(  6-O ,  8-H ) :   0.8718 B(  7-H , 18-O ) :   0.1888 B(  9-O , 10-H ) :   0.7555
B(  9-O , 11-H ) :   0.8429 B(  9-O , 31-H ) :   0.2352 B( 12-O , 13-H ) :   0.8395
B( 12-O , 14-H ) :   0.8446 B( 15-O , 16-H ) :   0.8414 B( 15-O , 17-H ) :   0.8444
B( 15-O , 42-O ) :   0.1044 B( 18-O , 19-H ) :   0.8162 B( 18-O , 20-H ) :   0.8339
B( 21-O , 22-H ) :   0.8015 B( 21-O , 23-H ) :   0.7897 B( 21-O , 53-H ) :   0.1217
B( 24-O , 25-H ) :   0.8366 B( 24-O , 26-H ) :   0.7741 B( 24-O , 58-H ) :   0.2354
B( 27-O , 28-H ) :   0.8738 B( 27-O , 29-H ) :   0.7481 B( 29-H , 54-O ) :   0.1146
B( 30-O , 31-H ) :   0.6383 B( 30-O , 32-H ) :   0.8746 B( 33-O , 34-H ) :   0.7400
B( 33-O , 35-H ) :   0.7350 B( 33-O , 44-H ) :   0.1021 B( 34-H , 36-O ) :   0.2167
B( 36-O , 37-H ) :   0.7814 B( 36-O , 38-H ) :   0.7948 B( 39-O , 40-H ) :   0.8402
B( 39-O , 41-H ) :   0.8514 B( 39-O , 42-O ) :   0.1862 B( 42-O , 43-H ) :   0.7235
B( 42-O , 44-H ) :   0.8137 B( 45-O , 46-H ) :   0.8725 B( 45-O , 47-H ) :   0.6952
B( 48-O , 49-H ) :   0.8017 B( 48-O , 50-H ) :   0.8133 B( 48-O , 55-H ) :   0.2191
B( 51-O , 52-H ) :   0.8722 B( 51-O , 53-H ) :   0.7438 B( 54-O , 55-H ) :   0.6617
B( 54-O , 56-H ) :   0.8746 B( 57-O , 58-H ) :   0.6431 B( 57-O , 59-H ) :   0.8753

Dispersion correction           -0.042592302
FINAL SINGLE POINT ENERGY     -1529.141283951710

DIPOLE MOMENT
-------------
                                X             Y             Z
Electronic contribution:     -0.01045       0.20214      -0.05398
Nuclear contribution   :      0.33006       0.09796       1.31857
                        -----------------------------------------
Total Dipole Moment    :      0.31961       0.30011       1.26459
                        -----------------------------------------
Magnitude (a.u.)       :      1.33844
Magnitude (Debye)      :      3.40204

                             ****ORCA TERMINATED NORMALLY****
TOTAL RUN TIME: 0 days 0 hours 48 minutes 50 seconds 937 msec
