                         Program Version 3.0.3 - RELEASE   -
|  1> ! wB97X-D3 MA-Def2-TZVP def2-TZVP/J RIJCOSX TightSCF Grid4
|  2>
|  3> %pal nprocs 1 end
|  4>
|  5> %scf
|  6>         maxiter 400
|  7> end
|  8>
|  9> %cosmo
| 10>         SMD true
| 11>         solvent "WATER"
| 12> end
| 13>
| 14> * xyz  0  1
| 15> O  1.607900	-2.608622	2.254672
| 16> H  1.097031	-2.838716	1.428354
| 17> H  0.968305	-2.055292	2.796400
| 18> O  2.602422	0.266801	-0.517914
| 19> H  2.480007	1.271212	-0.423467
| 20> H  3.024004	-0.088260	0.332294
| 21> O  1.119834	-2.980568	-2.542383
| 22> H  1.568421	-2.076142	-2.745100
| 23> H  1.665928	-3.663054	-2.979194
| 24> O  1.185537	3.057759	2.041718
| 25> H  1.495311	2.238982	2.564095
| 26> H  0.185915	2.997239	2.034674
| 27> O  2.046762	0.995020	3.445291
| 28> H  2.627098	0.418944	2.867606
| 29> H  1.287059	0.375594	3.644572
| 30> O  -3.222909	0.916904	-1.730807
| 31> H  -2.342493	0.657909	-2.121936
| 32> H  -3.000955	1.792903	-1.300597
| 33> O  1.991007	-0.575442	-2.979708
| 34> H  2.354543	-0.300925	-2.085382
| 35> H  1.080034	-0.172738	-2.970369
| 36> O  -1.523499	0.156448	1.835619
| 37> H  -1.587189	1.164242	1.918961
| 38> H  -0.849283	0.015043	1.085902
| 39> O  -3.463620	-0.837920	0.234183
| 40> H  -2.817022	-0.480233	0.913336
| 41> H  -3.409143	-0.154682	-0.518563
| 42> O  -1.488866	2.792454	1.840531
| 43> H  -2.085543	3.273494	2.447355
| 44> H  -1.799844	3.028813	0.896138
| 45> O  1.895039	2.767972	-0.371939
| 46> H  1.604518	2.915676	0.631714
| 47> H  2.573150	3.449536	-0.552466
| 48> O  0.125003	-0.425707	-0.085574
| 49> H  0.188734	-1.444567	-0.033813
| 50> H  1.099106	-0.128613	-0.175773
| 51> O  0.230997	-3.039771	-0.051348
| 52> H  -0.761619	-3.110882	-0.239234
| 53> H  0.661068	-3.129659	-0.960769
| 54> O  -1.374559	-2.224473	-3.246690
| 55> H  -1.821462	-2.495121	-2.386235
| 56> H  -0.466620	-2.635171	-3.141942
| 57> O  -0.678088	0.165516	-2.521235
| 58> H  -0.986181	-0.748254	-2.897449
| 59> H  -0.436991	-0.050907	-1.557820
| 60> O  3.313841	-0.734765	1.785453
| 61> H  4.213055	-1.055759	1.994595
| 62> H  2.681129	-1.543118	1.942783
| 63> O  -0.126779	2.852570	-2.120743
| 64> H  -0.262300	1.916388	-2.420943
| 65> H  0.656709	2.819739	-1.485474
| 66> O  0.082073	-0.858236	3.615364
| 67> H  -0.389845	-1.124474	4.428797
| 68> H  -0.633140	-0.474512	2.995420
| 69> O  -2.198288	3.170251	-0.629597
| 70> H  -1.349758	3.113872	-1.227731
| 71> H  -2.609651	4.029942	-0.849797
| 72> O  -2.286867	-2.860577	-0.797965
| 73> H  -2.787448	-2.054792	-0.353487
| 74> H  -2.902977	-3.618130	-0.750014
| 75> **                         ****END OF INPUT****

CARTESIAN COORDINATES (ANGSTROEM)
---------------------------------
  O      1.607900   -2.608622    2.254672
  H      1.097031   -2.838716    1.428354
  H      0.968305   -2.055292    2.796400
  O      2.602422    0.266801   -0.517914
  H      2.480007    1.271212   -0.423467
  H      3.024004   -0.088260    0.332294
  O      1.119834   -2.980568   -2.542383
  H      1.568421   -2.076142   -2.745100
  H      1.665928   -3.663054   -2.979194
  O      1.185537    3.057759    2.041718
  H      1.495311    2.238982    2.564095
  H      0.185915    2.997239    2.034674
  O      2.046762    0.995020    3.445291
  H      2.627098    0.418944    2.867606
  H      1.287059    0.375594    3.644572
  O     -3.222909    0.916904   -1.730807
  H     -2.342493    0.657909   -2.121936
  H     -3.000955    1.792903   -1.300597
  O      1.991007   -0.575442   -2.979708
  H      2.354543   -0.300925   -2.085382
  H      1.080034   -0.172738   -2.970369
  O     -1.523499    0.156448    1.835619
  H     -1.587189    1.164242    1.918961
  H     -0.849283    0.015043    1.085902
  O     -3.463620   -0.837920    0.234183
  H     -2.817022   -0.480233    0.913336
  H     -3.409143   -0.154682   -0.518563
  O     -1.488866    2.792454    1.840531
  H     -2.085543    3.273494    2.447355
  H     -1.799844    3.028813    0.896138
  O      1.895039    2.767972   -0.371939
  H      1.604518    2.915676    0.631714
  H      2.573150    3.449536   -0.552466
  O      0.125003   -0.425707   -0.085574
  H      0.188734   -1.444567   -0.033813
  H      1.099106   -0.128613   -0.175773
  O      0.230997   -3.039771   -0.051348
  H     -0.761619   -3.110882   -0.239234
  H      0.661068   -3.129659   -0.960769
  O     -1.374559   -2.224473   -3.246690
  H     -1.821462   -2.495121   -2.386235
  H     -0.466620   -2.635171   -3.141942
  O     -0.678088    0.165516   -2.521235
  H     -0.986181   -0.748254   -2.897449
  H     -0.436991   -0.050907   -1.557820
  O      3.313841   -0.734765    1.785453
  H      4.213055   -1.055759    1.994595
  H      2.681129   -1.543118    1.942783
  O     -0.126779    2.852570   -2.120743
  H     -0.262300    1.916388   -2.420943
  H      0.656709    2.819739   -1.485474
  O      0.082073   -0.858236    3.615364
  H     -0.389845   -1.124474    4.428797
  H     -0.633140   -0.474512    2.995420
  O     -2.198288    3.170251   -0.629597
  H     -1.349758    3.113872   -1.227731
  H     -2.609651    4.029942   -0.849797
  O     -2.286867   -2.860577   -0.797965
  H     -2.787448   -2.054792   -0.353487
  H     -2.902977   -3.618130   -0.750014

 Total Charge           Charge          ....    0
 Multiplicity           Mult            ....    1
 Number of Electrons    NEL             ....  200
 Basis Dimension        Dim             ....  940

ORBITAL ENERGIES
----------------

  NO   OCC          E(Eh)            E(eV)
   0   2.0000     -19.245669      -523.7013
   1   2.0000     -19.244702      -523.6750
   2   2.0000     -19.242948      -523.6272
   3   2.0000     -19.241509      -523.5881
   4   2.0000     -19.241171      -523.5789
   5   2.0000     -19.240409      -523.5581
   6   2.0000     -19.239862      -523.5433
   7   2.0000     -19.239256      -523.5268
   8   2.0000     -19.237889      -523.4896
   9   2.0000     -19.236836      -523.4609
  10   2.0000     -19.235988      -523.4379
  11   2.0000     -19.234350      -523.3933
  12   2.0000     -19.232833      -523.3520
  13   2.0000     -19.232606      -523.3458
  14   2.0000     -19.231591      -523.3182
  15   2.0000     -19.230944      -523.3006
  16   2.0000     -19.229958      -523.2738
  17   2.0000     -19.227176      -523.1981
  18   2.0000     -19.226339      -523.1753
  19   2.0000     -19.225450      -523.1511
  20   2.0000      -1.155568       -31.4446
  21   2.0000      -1.146349       -31.1937
  22   2.0000      -1.142263       -31.0826
  23   2.0000      -1.139497       -31.0073
  24   2.0000      -1.133418       -30.8419
  25   2.0000      -1.133261       -30.8376
  26   2.0000      -1.131085       -30.7784
  27   2.0000      -1.129477       -30.7346
  28   2.0000      -1.126935       -30.6655
  29   2.0000      -1.123323       -30.5672
  30   2.0000      -1.118082       -30.4246
  31   2.0000      -1.114283       -30.3212
  32   2.0000      -1.113876       -30.3101
  33   2.0000      -1.112541       -30.2738
  34   2.0000      -1.104138       -30.0451
  35   2.0000      -1.099392       -29.9160
  36   2.0000      -1.096857       -29.8470
  37   2.0000      -1.093480       -29.7551
  38   2.0000      -1.092417       -29.7262
  39   2.0000      -1.090114       -29.6635
  40   2.0000      -0.654447       -17.8084
  41   2.0000      -0.649677       -17.6786
  42   2.0000      -0.647018       -17.6063
  43   2.0000      -0.645959       -17.5774
  44   2.0000      -0.643611       -17.5136
  45   2.0000      -0.642815       -17.4919
  46   2.0000      -0.638897       -17.3853
  47   2.0000      -0.637285       -17.3414
  48   2.0000      -0.635242       -17.2858
  49   2.0000      -0.635016       -17.2797
  50   2.0000      -0.633853       -17.2480
  51   2.0000      -0.630456       -17.1556
  52   2.0000      -0.629008       -17.1162
  53   2.0000      -0.628703       -17.1079
  54   2.0000      -0.626874       -17.0581
  55   2.0000      -0.624331       -16.9889
  56   2.0000      -0.621843       -16.9212
  57   2.0000      -0.619931       -16.8692
  58   2.0000      -0.617199       -16.7948
  59   2.0000      -0.614949       -16.7336
  60   2.0000      -0.574838       -15.6421
  61   2.0000      -0.565859       -15.3978
  62   2.0000      -0.558833       -15.2066
  63   2.0000      -0.553330       -15.0569
  64   2.0000      -0.548020       -14.9124
  65   2.0000      -0.544041       -14.8041
  66   2.0000      -0.529805       -14.4167
  67   2.0000      -0.524992       -14.2858
  68   2.0000      -0.520241       -14.1565
  69   2.0000      -0.510988       -13.9047
  70   2.0000      -0.505606       -13.7583
  71   2.0000      -0.497488       -13.5373
  72   2.0000      -0.494639       -13.4598
  73   2.0000      -0.493058       -13.4168
  74   2.0000      -0.491123       -13.3641
  75   2.0000      -0.487351       -13.2615
  76   2.0000      -0.475512       -12.9393
  77   2.0000      -0.471256       -12.8235
  78   2.0000      -0.465584       -12.6692
  79   2.0000      -0.453946       -12.3525
  80   2.0000      -0.432064       -11.7571
  81   2.0000      -0.429717       -11.6932
  82   2.0000      -0.428485       -11.6597
  83   2.0000      -0.426645       -11.6096
  84   2.0000      -0.425824       -11.5873
  85   2.0000      -0.425671       -11.5831
  86   2.0000      -0.423769       -11.5313
  87   2.0000      -0.422998       -11.5104
  88   2.0000      -0.422430       -11.4949
  89   2.0000      -0.421480       -11.4691
  90   2.0000      -0.421063       -11.4577
  91   2.0000      -0.419720       -11.4212
  92   2.0000      -0.415562       -11.3080
  93   2.0000      -0.415365       -11.3027
  94   2.0000      -0.414541       -11.2802
  95   2.0000      -0.412601       -11.2274
  96   2.0000      -0.412036       -11.2121
  97   2.0000      -0.411484       -11.1971
  98   2.0000      -0.410856       -11.1800
  99   2.0000      -0.410135       -11.1603
 100   0.0000       0.056351         1.5334
 101   0.0000       0.077259         2.1023
 102   0.0000       0.080305         2.1852
 103   0.0000       0.082474         2.2442
 104   0.0000       0.100937         2.7466

MULLIKEN ATOMIC CHARGES
-----------------------
   0 O :   -0.836168
   1 H :    0.432617
   2 H :    0.419111
   3 O :   -0.902331
   4 H :    0.451865
   5 H :    0.454501
   6 O :   -0.879486
   7 H :    0.440301
   8 H :    0.423958
   9 O :   -0.863101
  10 H :    0.447587
  11 H :    0.426973
  12 O :   -0.834082
  13 H :    0.420310
  14 H :    0.419543
  15 O :   -0.852550
  16 H :    0.432629
  17 H :    0.423564
  18 O :   -0.827984
  19 H :    0.444336
  20 H :    0.418962
  21 O :   -0.877064
  22 H :    0.461555
  23 H :    0.415012
  24 O :   -0.863966
  25 H :    0.425507
  26 H :    0.450870
  27 O :   -0.823007
  28 H :    0.423066
  29 H :    0.428371
  30 O :   -0.834828
  31 H :    0.436563
  32 H :    0.420324
  33 O :   -0.791197
  34 H :    0.358289
  35 H :    0.354261
  36 O :   -0.852330
  37 H :    0.449137
  38 H :    0.454693
  39 O :   -0.797870
  40 H :    0.420450
  41 H :    0.424677
  42 O :   -1.104814
  43 H :    0.505460
  44 H :    0.413568
  45 O :   -0.866688
  46 H :    0.421223
  47 H :    0.433424
  48 O :   -0.833157
  49 H :    0.444452
  50 H :    0.425937
  51 O :   -0.866473
  52 H :    0.420857
  53 H :    0.433633
  54 O :   -0.821789
  55 H :    0.433658
  56 H :    0.422087
  57 O :   -0.863895
  58 H :    0.439418
  59 H :    0.420028
Sum of atomic charges:   -0.0000000

LOEWDIN ATOMIC CHARGES
----------------------
   0 O :   -0.401596
   1 H :    0.199382
   2 H :    0.198833
   3 O :   -0.410888
   4 H :    0.194301
   5 H :    0.196347
   6 O :   -0.386128
   7 H :    0.199106
   8 H :    0.221240
   9 O :   -0.401738
  10 H :    0.195104
  11 H :    0.195348
  12 O :   -0.426174
  13 H :    0.197857
  14 H :    0.197842
  15 O :   -0.420101
  16 H :    0.196070
  17 H :    0.198741
  18 O :   -0.400201
  19 H :    0.200926
  20 H :    0.201837
  21 O :   -0.406216
  22 H :    0.197175
  23 H :    0.191280
  24 O :   -0.413670
  25 H :    0.196164
  26 H :    0.194434
  27 O :   -0.364525
  28 H :    0.223714
  29 H :    0.197667
  30 O :   -0.385923
  31 H :    0.191689
  32 H :    0.220527
  33 O :   -0.413378
  34 H :    0.192528
  35 H :    0.193112
  36 O :   -0.407091
  37 H :    0.201113
  38 H :    0.200991
  39 O :   -0.411685
  40 H :    0.198410
  41 H :    0.199821
  42 O :   -0.473470
  43 H :    0.197086
  44 H :    0.189320
  45 O :   -0.384322
  46 H :    0.220209
  47 H :    0.197996
  48 O :   -0.389737
  49 H :    0.203154
  50 H :    0.197916
  51 O :   -0.383884
  52 H :    0.220789
  53 H :    0.197148
  54 O :   -0.374089
  55 H :    0.196662
  56 H :    0.222707
  57 O :   -0.394647
  58 H :    0.195357
  59 H :    0.219562

  Mayer bond orders larger than 0.1
B(  0-O ,  1-H ) :   0.8200 B(  0-O ,  2-H ) :   0.7981 B(  0-O , 47-H ) :   0.1199
B(  3-O ,  4-H ) :   0.7556 B(  3-O ,  5-H ) :   0.7531 B(  3-O , 33-O ) :  -0.1272
B(  3-O , 35-H ) :   0.2336 B(  4-H , 30-O ) :   0.1080 B(  6-O ,  7-H ) :   0.7353
B(  6-O ,  8-H ) :   0.8284 B(  7-H , 18-O ) :   0.1122 B(  9-O , 10-H ) :   0.7678
B(  9-O , 11-H ) :   0.8026 B(  9-O , 31-H ) :   0.1569 B( 12-O , 13-H ) :   0.8015
B( 12-O , 14-H ) :   0.8027 B( 15-O , 16-H ) :   0.8186 B( 15-O , 17-H ) :   0.7979
B( 18-O , 19-H ) :   0.7950 B( 18-O , 20-H ) :   0.8182 B( 21-O , 22-H ) :   0.7600
B( 21-O , 23-H ) :   0.8060 B( 24-O , 25-H ) :   0.8031 B( 24-O , 26-H ) :   0.7705
B( 24-O , 58-H ) :   0.1508 B( 27-O , 28-H ) :   0.8313 B( 27-O , 29-H ) :   0.7594
B( 30-O , 31-H ) :   0.6983 B( 30-O , 32-H ) :   0.8330 B( 33-O , 34-H ) :   0.7379
B( 33-O , 35-H ) :   0.7287 B( 33-O , 42-O ) :  -0.1126 B( 33-O , 44-H ) :   0.1353
B( 34-H , 36-O ) :   0.2220 B( 36-O , 37-H ) :   0.7688 B( 36-O , 38-H ) :   0.7756
B( 39-O , 40-H ) :   0.8027 B( 39-O , 41-H ) :   0.8066 B( 39-O , 42-O ) :   0.1375
B( 42-O , 43-H ) :   0.7275 B( 42-O , 44-H ) :   0.7979 B( 45-O , 46-H ) :   0.8305
B( 45-O , 47-H ) :   0.7344 B( 48-O , 49-H ) :   0.8063 B( 48-O , 50-H ) :   0.7919
B( 48-O , 55-H ) :   0.1105 B( 51-O , 52-H ) :   0.8304 B( 51-O , 53-H ) :   0.7583
B( 54-O , 55-H ) :   0.7398 B( 54-O , 56-H ) :   0.8324 B( 57-O , 58-H ) :   0.7039
B( 57-O , 59-H ) :   0.8330

Dispersion correction           -0.042554583
FINAL SINGLE POINT ENERGY     -1529.198684635187

DIPOLE MOMENT
-------------
                                X             Y             Z
Electronic contribution:      0.13524       0.18290       0.36616
Nuclear contribution   :      0.44763       0.03687       1.52454
                        -----------------------------------------
Total Dipole Moment    :      0.58287       0.21977       1.89069
                        -----------------------------------------
Magnitude (a.u.)       :      1.99067
Magnitude (Debye)      :      5.05988

                             ****ORCA TERMINATED NORMALLY****
TOTAL RUN TIME: 0 days 0 hours 52 minutes 49 seconds 337 msec
