                         Program Version 3.0.3 - RELEASE   -
|  1> ! B3LYP Def2-TZVP def2-TZVP/J RIJCOSX TightSCF Grid4 D3BJ COSMO
|  2>
|  3> %pal nprocs 12 end
|  4>
|  5> %scf
|  6>         maxiter 400
|  7> end
|  8>
|  9> %cosmo
| 10>         SMD true
| 11>         solvent "WATER"
| 12> end
| 13>
| 14> * xyz  0  1
| 15> O  1.430385	-2.770675	2.383193
| 16> H  1.018824	-3.000182	1.519674
| 17> H  0.769319	-2.206507	2.851046
| 18> O  2.748550	0.263397	-0.690381
| 19> H  2.612374	1.225539	-0.474032
| 20> H  3.045492	-0.171495	0.150373
| 21> O  1.151690	-3.043885	-2.735956
| 22> H  1.557686	-2.148775	-2.924445
| 23> H  1.713438	-3.687244	-3.194533
| 24> O  1.225770	3.185628	2.198080
| 25> H  1.395557	2.334562	2.686558
| 26> H  0.248896	3.287450	2.174030
| 27> O  1.864638	0.924227	3.453643
| 28> H  2.384970	0.375212	2.821768
| 29> H  1.134807	0.318435	3.712485
| 30> O  -3.307394	0.879750	-1.760106
| 31> H  -2.444293	0.648608	-2.171444
| 32> H  -3.105554	1.731993	-1.307533
| 33> O  1.950035	-0.527876	-3.151943
| 34> H  2.360069	-0.253047	-2.298319
| 35> H  1.043091	-0.158482	-3.103848
| 36> O  -1.251466	0.524767	1.771573
| 37> H  -1.338784	1.505768	1.876260
| 38> H  -0.575180	0.331687	1.071366
| 39> O  -3.076903	-0.865578	0.279742
| 40> H  -2.470475	-0.370136	0.878547
| 41> H  -3.229712	-0.239399	-0.476381
| 42> O  -1.486968	3.219837	1.950422
| 43> H  -2.176217	3.486044	2.577935
| 44> H  -1.879982	3.332186	1.041640
| 45> O  2.008577	2.762088	-0.241332
| 46> H  1.707806	2.948520	0.710041
| 47> H  2.639887	3.466493	-0.455543
| 48> O  0.262774	-0.436728	-0.152830
| 49> H  0.302250	-1.429559	-0.067016
| 50> H  1.200497	-0.162742	-0.352868
| 51> O  0.380551	-3.108309	-0.127210
| 52> H  -0.591059	-3.250164	-0.285474
| 53> H  0.790079	-3.206817	-1.022620
| 54> O  -1.437415	-2.345591	-3.223659
| 55> H  -1.833579	-2.668304	-2.378246
| 56> H  -0.529980	-2.729702	-3.201355
| 57> O  -0.753589	0.119056	-2.531956
| 58> H  -1.049745	-0.768267	-2.899295
| 59> H  -0.473887	-0.099552	-1.600591
| 60> O  3.097056	-0.825798	1.706649
| 61> H  3.974204	-1.064171	2.045679
| 62> H  2.505963	-1.606646	1.938564
| 63> O  -0.141608	2.834557	-1.971360
| 64> H  -0.256269	1.938274	-2.343209
| 65> H  0.645299	2.789806	-1.373071
| 66> O  -0.133668	-0.936927	3.652471
| 67> H  -0.729276	-1.118594	4.395311
| 68> H  -0.658211	-0.379061	3.012638
| 69> O  -2.339894	3.189827	-0.580982
| 70> H  -1.488773	3.118389	-1.112273
| 71> H  -2.786059	3.978937	-0.927702
| 72> O  -2.196379	-3.080986	-0.722604
| 73> H  -2.556782	-2.239951	-0.288809
| 74> H  -2.822832	-3.788746	-0.508389
| 75> **                         ****END OF INPUT****

CARTESIAN COORDINATES (ANGSTROEM)
---------------------------------
  O      1.430385   -2.770675    2.383193
  H      1.018824   -3.000182    1.519674
  H      0.769319   -2.206507    2.851046
  O      2.748550    0.263397   -0.690381
  H      2.612374    1.225539   -0.474032
  H      3.045492   -0.171495    0.150373
  O      1.151690   -3.043885   -2.735956
  H      1.557686   -2.148775   -2.924445
  H      1.713438   -3.687244   -3.194533
  O      1.225770    3.185628    2.198080
  H      1.395557    2.334562    2.686558
  H      0.248896    3.287450    2.174030
  O      1.864638    0.924227    3.453643
  H      2.384970    0.375212    2.821768
  H      1.134807    0.318435    3.712485
  O     -3.307394    0.879750   -1.760106
  H     -2.444293    0.648608   -2.171444
  H     -3.105554    1.731993   -1.307533
  O      1.950035   -0.527876   -3.151943
  H      2.360069   -0.253047   -2.298319
  H      1.043091   -0.158482   -3.103848
  O     -1.251466    0.524767    1.771573
  H     -1.338784    1.505768    1.876260
  H     -0.575180    0.331687    1.071366
  O     -3.076903   -0.865578    0.279742
  H     -2.470475   -0.370136    0.878547
  H     -3.229712   -0.239399   -0.476381
  O     -1.486968    3.219837    1.950422
  H     -2.176217    3.486044    2.577935
  H     -1.879982    3.332186    1.041640
  O      2.008577    2.762088   -0.241332
  H      1.707806    2.948520    0.710041
  H      2.639887    3.466493   -0.455543
  O      0.262774   -0.436728   -0.152830
  H      0.302250   -1.429559   -0.067016
  H      1.200497   -0.162742   -0.352868
  O      0.380551   -3.108309   -0.127210
  H     -0.591059   -3.250164   -0.285474
  H      0.790079   -3.206817   -1.022620
  O     -1.437415   -2.345591   -3.223659
  H     -1.833579   -2.668304   -2.378246
  H     -0.529980   -2.729702   -3.201355
  O     -0.753589    0.119056   -2.531956
  H     -1.049745   -0.768267   -2.899295
  H     -0.473887   -0.099552   -1.600591
  O      3.097056   -0.825798    1.706649
  H      3.974204   -1.064171    2.045679
  H      2.505963   -1.606646    1.938564
  O     -0.141608    2.834557   -1.971360
  H     -0.256269    1.938274   -2.343209
  H      0.645299    2.789806   -1.373071
  O     -0.133668   -0.936927    3.652471
  H     -0.729276   -1.118594    4.395311
  H     -0.658211   -0.379061    3.012638
  O     -2.339894    3.189827   -0.580982
  H     -1.488773    3.118389   -1.112273
  H     -2.786059    3.978937   -0.927702
  O     -2.196379   -3.080986   -0.722604
  H     -2.556782   -2.239951   -0.288809
  H     -2.822832   -3.788746   -0.508389

 Total Charge           Charge          ....    0
 Multiplicity           Mult            ....    1
 Number of Electrons    NEL             ....  200
 Basis Dimension        Dim             ....  860

ORBITAL ENERGIES
----------------

  NO   OCC          E(Eh)            E(eV)
   0   2.0000     -19.135652      -520.7076
   1   2.0000     -19.133515      -520.6494
   2   2.0000     -19.132795      -520.6298
   3   2.0000     -19.132620      -520.6251
   4   2.0000     -19.131352      -520.5906
   5   2.0000     -19.130212      -520.5595
   6   2.0000     -19.130113      -520.5569
   7   2.0000     -19.129057      -520.5281
   8   2.0000     -19.128345      -520.5087
   9   2.0000     -19.125458      -520.4302
  10   2.0000     -19.125025      -520.4184
  11   2.0000     -19.124933      -520.4159
  12   2.0000     -19.124263      -520.3977
  13   2.0000     -19.123515      -520.3773
  14   2.0000     -19.118325      -520.2361
  15   2.0000     -19.117237      -520.2065
  16   2.0000     -19.117050      -520.2014
  17   2.0000     -19.113810      -520.1132
  18   2.0000     -19.113788      -520.1126
  19   2.0000     -19.113284      -520.0989
  20   2.0000      -1.039128       -28.2761
  21   2.0000      -1.029609       -28.0171
  22   2.0000      -1.026653       -27.9367
  23   2.0000      -1.025075       -27.8937
  24   2.0000      -1.020206       -27.7612
  25   2.0000      -1.018665       -27.7193
  26   2.0000      -1.017626       -27.6910
  27   2.0000      -1.015994       -27.6466
  28   2.0000      -1.013160       -27.5695
  29   2.0000      -1.009700       -27.4753
  30   2.0000      -1.004959       -27.3463
  31   2.0000      -1.003601       -27.3094
  32   2.0000      -1.001897       -27.2630
  33   2.0000      -1.000884       -27.2354
  34   2.0000      -0.994646       -27.0657
  35   2.0000      -0.990603       -26.9557
  36   2.0000      -0.988845       -26.9078
  37   2.0000      -0.983989       -26.7757
  38   2.0000      -0.983656       -26.7667
  39   2.0000      -0.982851       -26.7447
  40   2.0000      -0.554122       -15.0784
  41   2.0000      -0.547002       -14.8847
  42   2.0000      -0.543952       -14.8017
  43   2.0000      -0.543197       -14.7811
  44   2.0000      -0.541865       -14.7449
  45   2.0000      -0.539311       -14.6754
  46   2.0000      -0.537610       -14.6291
  47   2.0000      -0.535625       -14.5751
  48   2.0000      -0.533831       -14.5263
  49   2.0000      -0.533173       -14.5084
  50   2.0000      -0.532107       -14.4794
  51   2.0000      -0.530814       -14.4442
  52   2.0000      -0.530128       -14.4255
  53   2.0000      -0.527573       -14.3560
  54   2.0000      -0.527102       -14.3432
  55   2.0000      -0.524743       -14.2790
  56   2.0000      -0.520646       -14.1675
  57   2.0000      -0.518389       -14.1061
  58   2.0000      -0.514249       -13.9934
  59   2.0000      -0.513737       -13.9795
  60   2.0000      -0.461331       -12.5535
  61   2.0000      -0.452695       -12.3185
  62   2.0000      -0.447967       -12.1898
  63   2.0000      -0.442667       -12.0456
  64   2.0000      -0.437762       -11.9121
  65   2.0000      -0.434907       -11.8344
  66   2.0000      -0.423548       -11.5253
  67   2.0000      -0.419755       -11.4221
  68   2.0000      -0.411205       -11.1895
  69   2.0000      -0.405814       -11.0428
  70   2.0000      -0.404401       -11.0043
  71   2.0000      -0.396367       -10.7857
  72   2.0000      -0.394241       -10.7279
  73   2.0000      -0.391479       -10.6527
  74   2.0000      -0.387745       -10.5511
  75   2.0000      -0.383690       -10.4407
  76   2.0000      -0.375486       -10.2175
  77   2.0000      -0.372289       -10.1305
  78   2.0000      -0.366090        -9.9618
  79   2.0000      -0.356142        -9.6911
  80   2.0000      -0.334195        -9.0939
  81   2.0000      -0.333015        -9.0618
  82   2.0000      -0.329768        -8.9734
  83   2.0000      -0.328814        -8.9475
  84   2.0000      -0.328165        -8.9298
  85   2.0000      -0.327631        -8.9153
  86   2.0000      -0.326413        -8.8821
  87   2.0000      -0.325832        -8.8663
  88   2.0000      -0.325190        -8.8489
  89   2.0000      -0.325057        -8.8452
  90   2.0000      -0.324500        -8.8301
  91   2.0000      -0.322577        -8.7778
  92   2.0000      -0.320308        -8.7160
  93   2.0000      -0.317922        -8.6511
  94   2.0000      -0.316456        -8.6112
  95   2.0000      -0.315667        -8.5897
  96   2.0000      -0.314721        -8.5640
  97   2.0000      -0.313896        -8.5415
  98   2.0000      -0.312240        -8.4965
  99   2.0000      -0.310653        -8.4533
 100   0.0000       0.003289         0.0895
 101   0.0000       0.031830         0.8661
 102   0.0000       0.037486         1.0200
 103   0.0000       0.042856         1.1662
 104   0.0000       0.060516         1.6467

MULLIKEN ATOMIC CHARGES
-----------------------
   0 O :   -0.751624
   1 H :    0.390758
   2 H :    0.369690
   3 O :   -0.762970
   4 H :    0.382853
   5 H :    0.385391
   6 O :   -0.741370
   7 H :    0.376123
   8 H :    0.386469
   9 O :   -0.762043
  10 H :    0.380585
  11 H :    0.379653
  12 O :   -0.758760
  13 H :    0.366704
  14 H :    0.362616
  15 O :   -0.757785
  16 H :    0.369441
  17 H :    0.370192
  18 O :   -0.748886
  19 H :    0.391915
  20 H :    0.364223
  21 O :   -0.764767
  22 H :    0.375860
  23 H :    0.381505
  24 O :   -0.762896
  25 H :    0.372452
  26 H :    0.373910
  27 O :   -0.737131
  28 H :    0.390640
  29 H :    0.382749
  30 O :   -0.747806
  31 H :    0.379143
  32 H :    0.387798
  33 O :   -0.776059
  34 H :    0.362236
  35 H :    0.359761
  36 O :   -0.765094
  37 H :    0.384153
  38 H :    0.380958
  39 O :   -0.756684
  40 H :    0.368618
  41 H :    0.366417
  42 O :   -0.830598
  43 H :    0.398537
  44 H :    0.370941
  45 O :   -0.742150
  46 H :    0.387052
  47 H :    0.370702
  48 O :   -0.738147
  49 H :    0.379553
  50 H :    0.371603
  51 O :   -0.744439
  52 H :    0.384435
  53 H :    0.391082
  54 O :   -0.742159
  55 H :    0.383545
  56 H :    0.387627
  57 O :   -0.749624
  58 H :    0.387358
  59 H :    0.385747
Sum of atomic charges:   -0.0000000

LOEWDIN ATOMIC CHARGES
----------------------
   0 O :   -0.316196
   1 H :    0.142471
   2 H :    0.139743
   3 O :   -0.287008
   4 H :    0.137387
   5 H :    0.139682
   6 O :   -0.278147
   7 H :    0.146455
   8 H :    0.184862
   9 O :   -0.314322
  10 H :    0.136299
  11 H :    0.138174
  12 O :   -0.324606
  13 H :    0.140370
  14 H :    0.139578
  15 O :   -0.328383
  16 H :    0.136716
  17 H :    0.141844
  18 O :   -0.312806
  19 H :    0.141441
  20 H :    0.140913
  21 O :   -0.273500
  22 H :    0.138689
  23 H :    0.132381
  24 O :   -0.313421
  25 H :    0.136515
  26 H :    0.136547
  27 O :   -0.267961
  28 H :    0.187237
  29 H :    0.147706
  30 O :   -0.273639
  31 H :    0.139856
  32 H :    0.183357
  33 O :   -0.270310
  34 H :    0.133218
  35 H :    0.126079
  36 O :   -0.289453
  37 H :    0.138648
  38 H :    0.144473
  39 O :   -0.321389
  40 H :    0.138337
  41 H :    0.139696
  42 O :   -0.317815
  43 H :    0.138312
  44 H :    0.122783
  45 O :   -0.271665
  46 H :    0.184117
  47 H :    0.142591
  48 O :   -0.297838
  49 H :    0.148028
  50 H :    0.144934
  51 O :   -0.279869
  52 H :    0.183840
  53 H :    0.141085
  54 O :   -0.271185
  55 H :    0.142057
  56 H :    0.184869
  57 O :   -0.272702
  58 H :    0.138750
  59 H :    0.182175

  Mayer bond orders larger than 0.1
B(  0-O ,  1-H ) :   0.8118 B(  0-O ,  2-H ) :   0.8029 B(  0-O , 47-H ) :   0.1680
B(  2-H , 51-O ) :   0.1045 B(  3-O ,  4-H ) :   0.7676 B(  3-O ,  5-H ) :   0.7775
B(  3-O , 35-H ) :   0.1948 B(  4-H , 30-O ) :   0.1315 B(  5-H , 45-O ) :   0.1205
B(  6-O ,  7-H ) :   0.7626 B(  6-O ,  8-H ) :   0.8521 B(  6-O , 38-H ) :   0.1107
B(  6-O , 41-H ) :   0.1084 B(  7-H , 18-O ) :   0.1362 B(  9-O , 10-H ) :   0.7791
B(  9-O , 11-H ) :   0.8077 B(  9-O , 31-H ) :   0.1825 B( 10-H , 12-O ) :   0.1223
B( 12-O , 13-H ) :   0.8075 B( 12-O , 14-H ) :   0.8111 B( 13-H , 45-O ) :   0.1077
B( 14-H , 51-O ) :   0.1103 B( 15-O , 16-H ) :   0.8203 B( 15-O , 17-H ) :   0.8079
B( 15-O , 26-H ) :   0.1336 B( 17-H , 54-O ) :   0.1012 B( 18-O , 19-H ) :   0.8042
B( 18-O , 20-H ) :   0.8310 B( 21-O , 22-H ) :   0.7704 B( 21-O , 23-H ) :   0.7837
B( 21-O , 53-H ) :   0.1113 B( 22-H , 27-O ) :   0.1381 B( 24-O , 25-H ) :   0.8051
B( 24-O , 26-H ) :   0.7797 B( 24-O , 58-H ) :   0.1583 B( 27-O , 28-H ) :   0.8493
B( 27-O , 29-H ) :   0.7700 B( 29-H , 54-O ) :   0.1230 B( 30-O , 31-H ) :   0.7241
B( 30-O , 32-H ) :   0.8524 B( 30-O , 50-H ) :   0.1107 B( 33-O , 34-H ) :   0.7582
B( 33-O , 35-H ) :   0.7409 B( 33-O , 44-H ) :   0.1155 B( 34-H , 36-O ) :   0.1627
B( 36-O , 37-H ) :   0.7687 B( 36-O , 38-H ) :   0.7903 B( 37-H , 57-O ) :   0.1322
B( 39-O , 40-H ) :   0.8009 B( 39-O , 41-H ) :   0.8083 B( 39-O , 43-H ) :   0.1537
B( 40-H , 57-O ) :   0.1148 B( 42-O , 43-H ) :   0.7448 B( 42-O , 44-H ) :   0.7586
B( 45-O , 46-H ) :   0.8526 B( 45-O , 47-H ) :   0.7454 B( 48-O , 49-H ) :   0.8341
B( 48-O , 50-H ) :   0.7963 B( 48-O , 55-H ) :   0.1434 B( 51-O , 52-H ) :   0.8530
B( 51-O , 53-H ) :   0.7668 B( 54-O , 55-H ) :   0.7499 B( 54-O , 56-H ) :   0.8521
B( 57-O , 58-H ) :   0.7330 B( 57-O , 59-H ) :   0.8528

Dispersion correction           -0.076880333
FINAL SINGLE POINT ENERGY     -1528.982605131050

DIPOLE MOMENT
-------------
                                X             Y             Z
Electronic contribution:      0.09039       0.19179       0.37555
Nuclear contribution   :      0.05358       0.12385       1.40337
                        -----------------------------------------
Total Dipole Moment    :      0.14397       0.31564       1.77892
                        -----------------------------------------
Magnitude (a.u.)       :      1.81243
Magnitude (Debye)      :      4.60683

                             ****ORCA TERMINATED NORMALLY****
TOTAL RUN TIME: 0 days 0 hours 2 minutes 45 seconds 522 msec
