                         Program Version 3.0.3 - RELEASE   -
|  1> ! wB97X-D3 MA-Def2-TZVP def2-TZVP/J RIJCOSX TightSCF Grid4
|  2>
|  3> %pal nprocs 1 end
|  4>
|  5> %scf
|  6>         maxiter 400
|  7> end
|  8>
|  9> %cosmo
| 10>         SMD true
| 11>         solvent "WATER"
| 12> end
| 13>
| 14> * xyz  0  1
| 15> O  1.430385	-2.770675	2.383193
| 16> H  1.018824	-3.000182	1.519674
| 17> H  0.769319	-2.206507	2.851046
| 18> O  2.748550	0.263397	-0.690381
| 19> H  2.612374	1.225539	-0.474032
| 20> H  3.045492	-0.171495	0.150373
| 21> O  1.151690	-3.043885	-2.735956
| 22> H  1.557686	-2.148775	-2.924445
| 23> H  1.713438	-3.687244	-3.194533
| 24> O  1.225770	3.185628	2.198080
| 25> H  1.395557	2.334562	2.686558
| 26> H  0.248896	3.287450	2.174030
| 27> O  1.864638	0.924227	3.453643
| 28> H  2.384970	0.375212	2.821768
| 29> H  1.134807	0.318435	3.712485
| 30> O  -3.307394	0.879750	-1.760106
| 31> H  -2.444293	0.648608	-2.171444
| 32> H  -3.105554	1.731993	-1.307533
| 33> O  1.950035	-0.527876	-3.151943
| 34> H  2.360069	-0.253047	-2.298319
| 35> H  1.043091	-0.158482	-3.103848
| 36> O  -1.251466	0.524767	1.771573
| 37> H  -1.338784	1.505768	1.876260
| 38> H  -0.575180	0.331687	1.071366
| 39> O  -3.076903	-0.865578	0.279742
| 40> H  -2.470475	-0.370136	0.878547
| 41> H  -3.229712	-0.239399	-0.476381
| 42> O  -1.486968	3.219837	1.950422
| 43> H  -2.176217	3.486044	2.577935
| 44> H  -1.879982	3.332186	1.041640
| 45> O  2.008577	2.762088	-0.241332
| 46> H  1.707806	2.948520	0.710041
| 47> H  2.639887	3.466493	-0.455543
| 48> O  0.262774	-0.436728	-0.152830
| 49> H  0.302250	-1.429559	-0.067016
| 50> H  1.200497	-0.162742	-0.352868
| 51> O  0.380551	-3.108309	-0.127210
| 52> H  -0.591059	-3.250164	-0.285474
| 53> H  0.790079	-3.206817	-1.022620
| 54> O  -1.437415	-2.345591	-3.223659
| 55> H  -1.833579	-2.668304	-2.378246
| 56> H  -0.529980	-2.729702	-3.201355
| 57> O  -0.753589	0.119056	-2.531956
| 58> H  -1.049745	-0.768267	-2.899295
| 59> H  -0.473887	-0.099552	-1.600591
| 60> O  3.097056	-0.825798	1.706649
| 61> H  3.974204	-1.064171	2.045679
| 62> H  2.505963	-1.606646	1.938564
| 63> O  -0.141608	2.834557	-1.971360
| 64> H  -0.256269	1.938274	-2.343209
| 65> H  0.645299	2.789806	-1.373071
| 66> O  -0.133668	-0.936927	3.652471
| 67> H  -0.729276	-1.118594	4.395311
| 68> H  -0.658211	-0.379061	3.012638
| 69> O  -2.339894	3.189827	-0.580982
| 70> H  -1.488773	3.118389	-1.112273
| 71> H  -2.786059	3.978937	-0.927702
| 72> O  -2.196379	-3.080986	-0.722604
| 73> H  -2.556782	-2.239951	-0.288809
| 74> H  -2.822832	-3.788746	-0.508389
| 75> **                         ****END OF INPUT****

CARTESIAN COORDINATES (ANGSTROEM)
---------------------------------
  O      1.430385   -2.770675    2.383193
  H      1.018824   -3.000182    1.519674
  H      0.769319   -2.206507    2.851046
  O      2.748550    0.263397   -0.690381
  H      2.612374    1.225539   -0.474032
  H      3.045492   -0.171495    0.150373
  O      1.151690   -3.043885   -2.735956
  H      1.557686   -2.148775   -2.924445
  H      1.713438   -3.687244   -3.194533
  O      1.225770    3.185628    2.198080
  H      1.395557    2.334562    2.686558
  H      0.248896    3.287450    2.174030
  O      1.864638    0.924227    3.453643
  H      2.384970    0.375212    2.821768
  H      1.134807    0.318435    3.712485
  O     -3.307394    0.879750   -1.760106
  H     -2.444293    0.648608   -2.171444
  H     -3.105554    1.731993   -1.307533
  O      1.950035   -0.527876   -3.151943
  H      2.360069   -0.253047   -2.298319
  H      1.043091   -0.158482   -3.103848
  O     -1.251466    0.524767    1.771573
  H     -1.338784    1.505768    1.876260
  H     -0.575180    0.331687    1.071366
  O     -3.076903   -0.865578    0.279742
  H     -2.470475   -0.370136    0.878547
  H     -3.229712   -0.239399   -0.476381
  O     -1.486968    3.219837    1.950422
  H     -2.176217    3.486044    2.577935
  H     -1.879982    3.332186    1.041640
  O      2.008577    2.762088   -0.241332
  H      1.707806    2.948520    0.710041
  H      2.639887    3.466493   -0.455543
  O      0.262774   -0.436728   -0.152830
  H      0.302250   -1.429559   -0.067016
  H      1.200497   -0.162742   -0.352868
  O      0.380551   -3.108309   -0.127210
  H     -0.591059   -3.250164   -0.285474
  H      0.790079   -3.206817   -1.022620
  O     -1.437415   -2.345591   -3.223659
  H     -1.833579   -2.668304   -2.378246
  H     -0.529980   -2.729702   -3.201355
  O     -0.753589    0.119056   -2.531956
  H     -1.049745   -0.768267   -2.899295
  H     -0.473887   -0.099552   -1.600591
  O      3.097056   -0.825798    1.706649
  H      3.974204   -1.064171    2.045679
  H      2.505963   -1.606646    1.938564
  O     -0.141608    2.834557   -1.971360
  H     -0.256269    1.938274   -2.343209
  H      0.645299    2.789806   -1.373071
  O     -0.133668   -0.936927    3.652471
  H     -0.729276   -1.118594    4.395311
  H     -0.658211   -0.379061    3.012638
  O     -2.339894    3.189827   -0.580982
  H     -1.488773    3.118389   -1.112273
  H     -2.786059    3.978937   -0.927702
  O     -2.196379   -3.080986   -0.722604
  H     -2.556782   -2.239951   -0.288809
  H     -2.822832   -3.788746   -0.508389

 Total Charge           Charge          ....    0
 Multiplicity           Mult            ....    1
 Number of Electrons    NEL             ....  200
 Basis Dimension        Dim             ....  940
Dispersion correction           -0.041615488
FINAL SINGLE POINT ENERGY     -1529.222592022838
                             ****ORCA TERMINATED NORMALLY****
TOTAL RUN TIME: 0 days 0 hours 53 minutes 18 seconds 284 msec

ORBITAL ENERGIES
----------------

  NO   OCC          E(Eh)            E(eV)
   0   2.0000     -19.245461      -523.6956
   1   2.0000     -19.243036      -523.6296
   2   2.0000     -19.242774      -523.6225
   3   2.0000     -19.242723      -523.6211
   4   2.0000     -19.241856      -523.5975
   5   2.0000     -19.241161      -523.5786
   6   2.0000     -19.240316      -523.5556
   7   2.0000     -19.239738      -523.5399
   8   2.0000     -19.239027      -523.5205
   9   2.0000     -19.236491      -523.4515
  10   2.0000     -19.235868      -523.4346
  11   2.0000     -19.235789      -523.4324
  12   2.0000     -19.235028      -523.4117
  13   2.0000     -19.234744      -523.4040
  14   2.0000     -19.229686      -523.2664
  15   2.0000     -19.228815      -523.2427
  16   2.0000     -19.228352      -523.2301
  17   2.0000     -19.226095      -523.1686
  18   2.0000     -19.226077      -523.1682
  19   2.0000     -19.224993      -523.1386
  20   2.0000      -1.158053       -31.5122
  21   2.0000      -1.147617       -31.2283
  22   2.0000      -1.144995       -31.1569
  23   2.0000      -1.143286       -31.1104
  24   2.0000      -1.138229       -30.9728
  25   2.0000      -1.136577       -30.9278
  26   2.0000      -1.135522       -30.8991
  27   2.0000      -1.133725       -30.8502
  28   2.0000      -1.131218       -30.7820
  29   2.0000      -1.127794       -30.6888
  30   2.0000      -1.123031       -30.5592
  31   2.0000      -1.121169       -30.5086
  32   2.0000      -1.119849       -30.4726
  33   2.0000      -1.118927       -30.4476
  34   2.0000      -1.112007       -30.2592
  35   2.0000      -1.108257       -30.1572
  36   2.0000      -1.106272       -30.1032
  37   2.0000      -1.101905       -29.9844
  38   2.0000      -1.101178       -29.9646
  39   2.0000      -1.100565       -29.9479
  40   2.0000      -0.661265       -17.9939
  41   2.0000      -0.654416       -17.8076
  42   2.0000      -0.650253       -17.6943
  43   2.0000      -0.650031       -17.6882
  44   2.0000      -0.646917       -17.6035
  45   2.0000      -0.645424       -17.5629
  46   2.0000      -0.643668       -17.5151
  47   2.0000      -0.641412       -17.4537
  48   2.0000      -0.639094       -17.3906
  49   2.0000      -0.638496       -17.3744
  50   2.0000      -0.637532       -17.3481
  51   2.0000      -0.636958       -17.3325
  52   2.0000      -0.635779       -17.3004
  53   2.0000      -0.634049       -17.2534
  54   2.0000      -0.632791       -17.2191
  55   2.0000      -0.630473       -17.1560
  56   2.0000      -0.626823       -17.0567
  57   2.0000      -0.624288       -16.9877
  58   2.0000      -0.619913       -16.8687
  59   2.0000      -0.619573       -16.8594
  60   2.0000      -0.568916       -15.4810
  61   2.0000      -0.559219       -15.2171
  62   2.0000      -0.554359       -15.0849
  63   2.0000      -0.548870       -14.9355
  64   2.0000      -0.543387       -14.7863
  65   2.0000      -0.540478       -14.7072
  66   2.0000      -0.528630       -14.3848
  67   2.0000      -0.524189       -14.2639
  68   2.0000      -0.516139       -14.0449
  69   2.0000      -0.510353       -13.8874
  70   2.0000      -0.507556       -13.8113
  71   2.0000      -0.499204       -13.5840
  72   2.0000      -0.497640       -13.5415
  73   2.0000      -0.493701       -13.4343
  74   2.0000      -0.490798       -13.3553
  75   2.0000      -0.486590       -13.2408
  76   2.0000      -0.477293       -12.9878
  77   2.0000      -0.473810       -12.8930
  78   2.0000      -0.467556       -12.7229
  79   2.0000      -0.457188       -12.4407
  80   2.0000      -0.435084       -11.8392
  81   2.0000      -0.434053       -11.8112
  82   2.0000      -0.430587       -11.7169
  83   2.0000      -0.429758       -11.6943
  84   2.0000      -0.429160       -11.6780
  85   2.0000      -0.428117       -11.6497
  86   2.0000      -0.427171       -11.6239
  87   2.0000      -0.426661       -11.6100
  88   2.0000      -0.425701       -11.5839
  89   2.0000      -0.425263       -11.5720
  90   2.0000      -0.425115       -11.5680
  91   2.0000      -0.423149       -11.5145
  92   2.0000      -0.420905       -11.4534
  93   2.0000      -0.418619       -11.3912
  94   2.0000      -0.417738       -11.3672
  95   2.0000      -0.416468       -11.3327
  96   2.0000      -0.415220       -11.2987
  97   2.0000      -0.414332       -11.2746
  98   2.0000      -0.413388       -11.2488
  99   2.0000      -0.412691       -11.2299
 100   0.0000       0.055852         1.5198
 101   0.0000       0.076680         2.0866
 102   0.0000       0.080314         2.1855
 103   0.0000       0.080908         2.2016
 104   0.0000       0.099592         2.7100

MULLIKEN ATOMIC CHARGES
-----------------------
   0 O :   -0.815116
   1 H :    0.424421
   2 H :    0.418187
   3 O :   -0.851054
   4 H :    0.438343
   5 H :    0.433755
   6 O :   -0.856742
   7 H :    0.426795
   8 H :    0.419275
   9 O :   -0.846872
  10 H :    0.431728
  11 H :    0.422160
  12 O :   -0.821942
  13 H :    0.405666
  14 H :    0.414098
  15 O :   -0.844971
  16 H :    0.436064
  17 H :    0.411604
  18 O :   -0.827418
  19 H :    0.435842
  20 H :    0.412968
  21 O :   -0.849173
  22 H :    0.432895
  23 H :    0.415925
  24 O :   -0.838741
  25 H :    0.394681
  26 H :    0.438831
  27 O :   -0.813017
  28 H :    0.423882
  29 H :    0.416138
  30 O :   -0.818840
  31 H :    0.429500
  32 H :    0.417405
  33 O :   -0.757178
  34 H :    0.356377
  35 H :    0.319697
  36 O :   -0.841024
  37 H :    0.444802
  38 H :    0.434790
  39 O :   -0.797099
  40 H :    0.417321
  41 H :    0.415140
  42 O :   -1.042301
  43 H :    0.483091
  44 H :    0.404385
  45 O :   -0.835329
  46 H :    0.418481
  47 H :    0.404891
  48 O :   -0.796925
  49 H :    0.418870
  50 H :    0.401042
  51 O :   -0.856047
  52 H :    0.418642
  53 H :    0.429582
  54 O :   -0.793561
  55 H :    0.417617
  56 H :    0.418553
  57 O :   -0.857141
  58 H :    0.438195
  59 H :    0.418853
Sum of atomic charges:    0.0000000

LOEWDIN ATOMIC CHARGES
----------------------
   0 O :   -0.401389
   1 H :    0.192109
   2 H :    0.191583
   3 O :   -0.394281
   4 H :    0.189931
   5 H :    0.192247
   6 O :   -0.375932
   7 H :    0.195663
   8 H :    0.216142
   9 O :   -0.400433
  10 H :    0.186921
  11 H :    0.189123
  12 O :   -0.409624
  13 H :    0.192100
  14 H :    0.192075
  15 O :   -0.412610
  16 H :    0.189172
  17 H :    0.192547
  18 O :   -0.398191
  19 H :    0.192552
  20 H :    0.193896
  21 O :   -0.385590
  22 H :    0.191470
  23 H :    0.189287
  24 O :   -0.400078
  25 H :    0.189969
  26 H :    0.188413
  27 O :   -0.363749
  28 H :    0.218502
  29 H :    0.195833
  30 O :   -0.372259
  31 H :    0.189087
  32 H :    0.216262
  33 O :   -0.396478
  34 H :    0.191337
  35 H :    0.182025
  36 O :   -0.396235
  37 H :    0.191859
  38 H :    0.199024
  39 O :   -0.405782
  40 H :    0.191611
  41 H :    0.192565
  42 O :   -0.445732
  43 H :    0.193111
  44 H :    0.183632
  45 O :   -0.371524
  46 H :    0.216736
  47 H :    0.193079
  48 O :   -0.380590
  49 H :    0.198383
  50 H :    0.195087
  51 O :   -0.376628
  52 H :    0.215538
  53 H :    0.190428
  54 O :   -0.369364
  55 H :    0.189955
  56 H :    0.216858
  57 O :   -0.372901
  58 H :    0.188430
  59 H :    0.214828

  Mayer bond orders larger than 0.1
B(  0-O ,  1-H ) :   0.8345 B(  0-O ,  2-H ) :   0.8226 B(  0-O , 47-H ) :   0.1145
B(  3-O ,  4-H ) :   0.7906 B(  3-O ,  5-H ) :   0.7906 B(  3-O , 33-O ) :  -0.1375
B(  3-O , 35-H ) :   0.2387 B(  6-O ,  7-H ) :   0.7801 B(  6-O ,  8-H ) :   0.8335
B(  9-O , 10-H ) :   0.8013 B(  9-O , 11-H ) :   0.8236 B( 12-O , 13-H ) :   0.8175
B( 12-O , 14-H ) :   0.8151 B( 15-O , 16-H ) :   0.8318 B( 15-O , 17-H ) :   0.8219
B( 18-O , 19-H ) :   0.8163 B( 18-O , 20-H ) :   0.8328 B( 21-O , 22-H ) :   0.7771
B( 21-O , 23-H ) :   0.8323 B( 24-O , 25-H ) :   0.8176 B( 24-O , 26-H ) :   0.7853
B( 27-O , 28-H ) :   0.8346 B( 27-O , 29-H ) :   0.7927 B( 30-O , 31-H ) :   0.7521
B( 30-O , 32-H ) :   0.8377 B( 33-O , 34-H ) :   0.7809 B( 33-O , 35-H ) :   0.7522
B( 33-O , 44-H ) :   0.1024 B( 34-H , 36-O ) :   0.1663 B( 36-O , 37-H ) :   0.7838
B( 36-O , 38-H ) :   0.8044 B( 39-O , 40-H ) :   0.8193 B( 39-O , 41-H ) :   0.8232
B( 39-O , 42-O ) :   0.1072 B( 42-O , 43-H ) :   0.7726 B( 42-O , 44-H ) :   0.8243
B( 45-O , 46-H ) :   0.8374 B( 45-O , 47-H ) :   0.7704 B( 48-O , 49-H ) :   0.8248
B( 48-O , 50-H ) :   0.8160 B( 51-O , 52-H ) :   0.8331 B( 51-O , 53-H ) :   0.7837
B( 54-O , 55-H ) :   0.7920 B( 54-O , 56-H ) :   0.8402 B( 57-O , 58-H ) :   0.7558
B( 57-O , 59-H ) :   0.8341

Dispersion correction           -0.041615488
FINAL SINGLE POINT ENERGY     -1529.222592022838

DIPOLE MOMENT
-------------
                                X             Y             Z
Electronic contribution:      0.08309       0.17075       0.35800
Nuclear contribution   :      0.05358       0.12385       1.40337
                        -----------------------------------------
Total Dipole Moment    :      0.13668       0.29460       1.76137
                        -----------------------------------------
Magnitude (a.u.)       :      1.79106
Magnitude (Debye)      :      4.55251

                             ****ORCA TERMINATED NORMALLY****
TOTAL RUN TIME: 0 days 0 hours 46 minutes 49 seconds 656 msec
