                         Program Version 4.2.0 -  RELEASE  -
|  1> # 12meoh.boyd.etal.mol0,1,3
|  2> ! MP2 def2-TZVP EnGrad TightSCF
|  3>
|  4> %pal
|  5>     nprocs 6
|  6> end
|  7>
|  8> %maxcore 8000
|  9>
| 10> %scf
| 11>     ConvForced true
| 12> end
| 13>
| 14> *xyz 0 1
| 15> O  -1.776108874  -2.741384797  -1.019308298
| 16> H  -2.520094035  -2.452295987  -0.420778302
| 17> C  -2.174025166  -3.952700964  -1.647004581
| 18> H  -1.359803895  -4.272673416  -2.304149236
| 19> H  -3.075973971  -3.808692420  -2.256751112
| 20> H  -2.370225393  -4.752784761  -0.918966137
| 21> O   0.666045193  -2.600503172   0.138317521
| 22> H  -0.227115049  -2.712051982  -0.281868004
| 23> C   0.490021232  -1.851247678   1.341189459
| 24> H   1.466500502  -1.466176022   1.645844415
| 25> H   0.097564527  -2.488364683   2.146902740
| 26> H  -0.187588112  -1.000787499   1.200739571
| 27> O  -3.821405976  -2.118091637   0.596795346
| 28> H  -4.342989117  -1.344303030   0.251966383
| 29> C  -3.443883586  -1.809641231   1.934889393
| 30> H  -2.831494349  -2.637429600   2.305201764
| 31> H  -4.325601146  -1.719364371   2.585074667
| 32> H  -2.858527126  -0.882644791   1.996110694
| 33> *
| 34>
| 35>                          ****END OF INPUT****

CARTESIAN COORDINATES (ANGSTROEM)
---------------------------------
  O     -1.776109   -2.741385   -1.019308
  H     -2.520094   -2.452296   -0.420778
  C     -2.174025   -3.952701   -1.647005
  H     -1.359804   -4.272673   -2.304149
  H     -3.075974   -3.808692   -2.256751
  H     -2.370225   -4.752785   -0.918966
  O      0.666045   -2.600503    0.138318
  H     -0.227115   -2.712052   -0.281868
  C      0.490021   -1.851248    1.341189
  H      1.466501   -1.466176    1.645844
  H      0.097565   -2.488365    2.146903
  H     -0.187588   -1.000787    1.200740
  O     -3.821406   -2.118092    0.596795
  H     -4.342989   -1.344303    0.251966
  C     -3.443884   -1.809641    1.934889
  H     -2.831494   -2.637430    2.305202
  H     -4.325601   -1.719364    2.585075
  H     -2.858527   -0.882645    1.996111

 Total Charge           Charge          ....    0
 Multiplicity           Mult            ....    1
 Number of Electrons    NEL             ....   54
 Basis Dimension        Dim             ....  258

ORBITAL ENERGIES
----------------

  NO   OCC          E(Eh)            E(eV)
   0   2.0000     -20.603959      -560.6622
   1   2.0000     -20.545813      -559.0800
   2   2.0000     -20.505479      -557.9824
   3   2.0000     -11.299711      -307.4808
   4   2.0000     -11.265883      -306.5603
   5   2.0000     -11.248045      -306.0749
   6   2.0000      -1.397448       -38.0265
   7   2.0000      -1.346291       -36.6344
   8   2.0000      -1.300950       -35.4006
   9   2.0000      -0.952187       -25.9103
  10   2.0000      -0.915785       -24.9198
  11   2.0000      -0.893581       -24.3156
  12   2.0000      -0.730863       -19.8878
  13   2.0000      -0.697822       -18.9887
  14   2.0000      -0.662232       -18.0203
  15   2.0000      -0.645277       -17.5589
  16   2.0000      -0.623185       -16.9577
  17   2.0000      -0.609441       -16.5837
  18   2.0000      -0.588278       -16.0079
  19   2.0000      -0.583353       -15.8738
  20   2.0000      -0.555095       -15.1049
  21   2.0000      -0.540705       -14.7133
  22   2.0000      -0.506895       -13.7933
  23   2.0000      -0.484113       -13.1734
  24   2.0000      -0.463939       -12.6244
  25   2.0000      -0.437491       -11.9047
  26   2.0000      -0.410751       -11.1771
  27   0.0000       0.107965         2.9379
  28   0.0000       0.146172         3.9775
  29   0.0000       0.159789         4.3481
  30   0.0000       0.186169         5.0659
  31   0.0000       0.191613         5.2141

MULLIKEN ATOMIC CHARGES
-----------------------
   0 O :   -0.558505
   1 H :    0.354934
   2 C :   -0.164488
   3 H :    0.138342
   4 H :    0.110037
   5 H :    0.111583
   6 O :   -0.527911
   7 H :    0.357510
   8 C :   -0.168478
   9 H :    0.122643
  10 H :    0.085654
  11 H :    0.090012
  12 O :   -0.517902
  13 H :    0.346309
  14 C :   -0.194075
  15 H :    0.148521
  16 H :    0.134537
  17 H :    0.131278
Sum of atomic charges:    0.0000000

LOEWDIN ATOMIC CHARGES
----------------------
   0 O :   -0.092736
   1 H :    0.162337
   2 C :   -0.385449
   3 H :    0.112256
   4 H :    0.099576
   5 H :    0.098045
   6 O :   -0.124741
   7 H :    0.161003
   8 C :   -0.395067
   9 H :    0.104689
  10 H :    0.087550
  11 H :    0.088218
  12 O :   -0.072452
  13 H :    0.202032
  14 C :   -0.371910
  15 H :    0.117427
  16 H :    0.106184
  17 H :    0.103036

  Mayer bond orders larger than 0.100000
B(  0-O ,  1-H ) :   0.7628 B(  0-O ,  2-C ) :   0.8866 B(  1-H , 12-O ) :   0.1122
B(  2-C ,  3-H ) :   0.9415 B(  2-C ,  4-H ) :   0.9391 B(  2-C ,  5-H ) :   0.9371
B(  6-O ,  7-H ) :   0.7825 B(  6-O ,  8-C ) :   0.9621 B(  8-C ,  9-H ) :   0.9403
B(  8-C , 10-H ) :   0.9361 B(  8-C , 11-H ) :   0.9404 B( 12-O , 13-H ) :   0.8253
B( 12-O , 14-C ) :   0.8601 B( 14-C , 15-H ) :   0.9379 B( 14-C , 16-H ) :   0.9327
B( 14-C , 17-H ) :   0.9388

MP2 TOTAL ENERGY:     -346.541652753 Eh
FINAL SINGLE POINT ENERGY      -346.541652752865

DIPOLE MOMENT
-------------
                                X             Y             Z
Electronic contribution:      0.05891       0.09920      -2.38866
Nuclear contribution   :     -2.02541       0.46476       3.10615
                        -----------------------------------------
Total Dipole Moment    :     -1.96649       0.56395       0.71750
                        -----------------------------------------
Magnitude (a.u.)       :      2.16793
Magnitude (Debye)      :      5.51045

Rotational constants in cm-1:     0.080107     0.054593     0.034004
Rotational constants in MHz :  2401.552555  1636.651895  1019.414961

                             ****ORCA TERMINATED NORMALLY****
TOTAL RUN TIME: 0 days 0 hours 1 minutes 55 seconds 510 msec
