                         Program Version 3.0.3 - RELEASE   -
|  1> ! B3LYP Def2-TZVP def2-TZVP/J RIJCOSX TightSCF Grid4 D3BJ
|  2>
|  3> %pal nprocs 12 end
|  4>
|  5> %scf
|  6>         maxiter 400
|  7> end
|  8>
|  9> * xyz  0  1
| 10> O  1.721954	-2.305473	2.392663
| 11> H  1.219857	-2.670177	1.588750
| 12> H  2.020551	-3.089126	2.889575
| 13> O  2.545625	0.343066	-0.590298
| 14> H  2.448955	1.349685	-0.627682
| 15> H  3.062467	0.087768	0.270575
| 16> O  1.202126	-3.153472	-2.258121
| 17> H  1.554641	-2.197008	-2.534214
| 18> H  1.796261	-3.798773	-2.682343
| 19> O  1.019933	3.389170	1.559137
| 20> H  1.380253	2.681582	2.171358
| 21> H  0.022434	3.275092	1.580345
| 22> O  2.046450	1.434702	3.120721
| 23> H  2.418149	1.779293	3.954185
| 24> H  1.317172	0.726696	3.418622
| 25> O  -3.238308	0.610319	-1.587170
| 26> H  -3.866183	0.551317	-2.331293
| 27> H  -2.323877	0.366829	-1.985193
| 28> O  1.883259	-0.799969	-2.891893
| 29> H  2.280366	-0.372556	-2.068805
| 30> H  0.992900	-0.372749	-2.962269
| 31> O  -1.477961	0.316229	1.904879
| 32> H  -1.614992	1.317927	1.842213
| 33> H  -0.803033	0.128828	1.173302
| 34> O  -3.316606	-1.060224	0.557346
| 35> H  -2.708021	-0.548318	1.182583
| 36> H  -3.414855	-0.443371	-0.222234
| 37> O  -1.625363	2.918787	1.483541
| 38> H  -2.206863	3.502209	2.005322
| 39> H  -1.962811	3.020994	0.463012
| 40> O  1.852187	2.864881	-0.748293
| 41> H  1.496125	3.113818	0.226269
| 42> H  2.459164	3.586022	-0.998515
| 43> O  0.149599	-0.388859	-0.022630
| 44> H  0.256670	-1.386301	0.090492
| 45> H  1.115597	-0.050249	-0.165551
| 46> O  0.419493	-3.030281	0.254260
| 47> H  -0.576945	-3.189452	0.143453
| 48> H  0.822173	-3.192821	-0.658163
| 49> O  -1.387567	-2.548144	-2.861074
| 50> H  -1.781193	-2.807905	-1.979214
| 51> H  -0.471535	-2.935591	-2.805731
| 52> O  -0.855873	-0.063887	-2.423572
| 53> H  -1.087253	-1.042820	-2.690907
| 54> H  -0.483934	-0.170371	-1.480620
| 55> O  3.540515	-0.317893	1.687183
| 56> H  3.001220	-1.118900	1.921531
| 57> H  3.111771	0.390087	2.251619
| 58> O  -0.311677	2.727416	-2.405786
| 59> H  -0.410862	1.771948	-2.627746
| 60> H  0.510339	2.775858	-1.838829
| 61> O  0.345285	-0.329354	3.743546
| 62> H  -0.446629	-0.119870	3.155116
| 63> H  0.753707	-1.134261	3.324860
| 64> O  -2.407773	3.129169	-0.876114
| 65> H  -1.588450	3.081756	-1.486452
| 66> H  -2.872793	2.277716	-1.095957
| 67> O  -2.136202	-3.093027	-0.298860
| 68> H  -2.734844	-3.841401	-0.118996
| 69> H  -2.640126	-2.223761	0.088366
| 70> **                         ****END OF INPUT****

CARTESIAN COORDINATES (ANGSTROEM)
---------------------------------
  O      1.721954   -2.305473    2.392663
  H      1.219857   -2.670177    1.588750
  H      2.020551   -3.089126    2.889575
  O      2.545625    0.343066   -0.590298
  H      2.448955    1.349685   -0.627682
  H      3.062467    0.087768    0.270575
  O      1.202126   -3.153472   -2.258121
  H      1.554641   -2.197008   -2.534214
  H      1.796261   -3.798773   -2.682343
  O      1.019933    3.389170    1.559137
  H      1.380253    2.681582    2.171358
  H      0.022434    3.275092    1.580345
  O      2.046450    1.434702    3.120721
  H      2.418149    1.779293    3.954185
  H      1.317172    0.726696    3.418622
  O     -3.238308    0.610319   -1.587170
  H     -3.866183    0.551317   -2.331293
  H     -2.323877    0.366829   -1.985193
  O      1.883259   -0.799969   -2.891893
  H      2.280366   -0.372556   -2.068805
  H      0.992900   -0.372749   -2.962269
  O     -1.477961    0.316229    1.904879
  H     -1.614992    1.317927    1.842213
  H     -0.803033    0.128828    1.173302
  O     -3.316606   -1.060224    0.557346
  H     -2.708021   -0.548318    1.182583
  H     -3.414855   -0.443371   -0.222234
  O     -1.625363    2.918787    1.483541
  H     -2.206863    3.502209    2.005322
  H     -1.962811    3.020994    0.463012
  O      1.852187    2.864881   -0.748293
  H      1.496125    3.113818    0.226269
  H      2.459164    3.586022   -0.998515
  O      0.149599   -0.388859   -0.022630
  H      0.256670   -1.386301    0.090492
  H      1.115597   -0.050249   -0.165551
  O      0.419493   -3.030281    0.254260
  H     -0.576945   -3.189452    0.143453
  H      0.822173   -3.192821   -0.658163
  O     -1.387567   -2.548144   -2.861074
  H     -1.781193   -2.807905   -1.979214
  H     -0.471535   -2.935591   -2.805731
  O     -0.855873   -0.063887   -2.423572
  H     -1.087253   -1.042820   -2.690907
  H     -0.483934   -0.170371   -1.480620
  O      3.540515   -0.317893    1.687183
  H      3.001220   -1.118900    1.921531
  H      3.111771    0.390087    2.251619
  O     -0.311677    2.727416   -2.405786
  H     -0.410862    1.771948   -2.627746
  H      0.510339    2.775858   -1.838829
  O      0.345285   -0.329354    3.743546
  H     -0.446629   -0.119870    3.155116
  H      0.753707   -1.134261    3.324860
  O     -2.407773    3.129169   -0.876114
  H     -1.588450    3.081756   -1.486452
  H     -2.872793    2.277716   -1.095957
  O     -2.136202   -3.093027   -0.298860
  H     -2.734844   -3.841401   -0.118996
  H     -2.640126   -2.223761    0.088366

 Total Charge           Charge          ....    0
 Multiplicity           Mult            ....    1
 Number of Electrons    NEL             ....  200
 Basis Dimension        Dim             ....  860

ORBITAL ENERGIES
----------------

  NO   OCC          E(Eh)            E(eV)
   0   2.0000     -19.153428      -521.1913
   1   2.0000     -19.149909      -521.0955
   2   2.0000     -19.146445      -521.0013
   3   2.0000     -19.141892      -520.8774
   4   2.0000     -19.140028      -520.8266
   5   2.0000     -19.135124      -520.6932
   6   2.0000     -19.133117      -520.6386
   7   2.0000     -19.133076      -520.6375
   8   2.0000     -19.131221      -520.5870
   9   2.0000     -19.130931      -520.5791
  10   2.0000     -19.128840      -520.5222
  11   2.0000     -19.123698      -520.3823
  12   2.0000     -19.123424      -520.3748
  13   2.0000     -19.121352      -520.3184
  14   2.0000     -19.120834      -520.3043
  15   2.0000     -19.119949      -520.2803
  16   2.0000     -19.116169      -520.1774
  17   2.0000     -19.115654      -520.1634
  18   2.0000     -19.114354      -520.1280
  19   2.0000     -19.112581      -520.0798
  20   2.0000      -1.045196       -28.4412
  21   2.0000      -1.036068       -28.1928
  22   2.0000      -1.032238       -28.0886
  23   2.0000      -1.027853       -27.9693
  24   2.0000      -1.025403       -27.9026
  25   2.0000      -1.021460       -27.7953
  26   2.0000      -1.017884       -27.6980
  27   2.0000      -1.016527       -27.6611
  28   2.0000      -1.012572       -27.5535
  29   2.0000      -1.012243       -27.5445
  30   2.0000      -1.005614       -27.3642
  31   2.0000      -1.001153       -27.2428
  32   2.0000      -0.998656       -27.1748
  33   2.0000      -0.993440       -27.0329
  34   2.0000      -0.990431       -26.9510
  35   2.0000      -0.985563       -26.8185
  36   2.0000      -0.982180       -26.7265
  37   2.0000      -0.979507       -26.6537
  38   2.0000      -0.975864       -26.5546
  39   2.0000      -0.972683       -26.4681
  40   2.0000      -0.562532       -15.3073
  41   2.0000      -0.557287       -15.1646
  42   2.0000      -0.552336       -15.0298
  43   2.0000      -0.549970       -14.9654
  44   2.0000      -0.541359       -14.7311
  45   2.0000      -0.540664       -14.7122
  46   2.0000      -0.539195       -14.6722
  47   2.0000      -0.536126       -14.5887
  48   2.0000      -0.535002       -14.5582
  49   2.0000      -0.532902       -14.5010
  50   2.0000      -0.531980       -14.4759
  51   2.0000      -0.528595       -14.3838
  52   2.0000      -0.527178       -14.3452
  53   2.0000      -0.525577       -14.3017
  54   2.0000      -0.523937       -14.2570
  55   2.0000      -0.521925       -14.2023
  56   2.0000      -0.519163       -14.1272
  57   2.0000      -0.516024       -14.0417
  58   2.0000      -0.514741       -14.0068
  59   2.0000      -0.512210       -13.9379
  60   2.0000      -0.479086       -13.0366
  61   2.0000      -0.463429       -12.6105
  62   2.0000      -0.456574       -12.4240
  63   2.0000      -0.452002       -12.2996
  64   2.0000      -0.445667       -12.1272
  65   2.0000      -0.444841       -12.1047
  66   2.0000      -0.431943       -11.7538
  67   2.0000      -0.422455       -11.4956
  68   2.0000      -0.419328       -11.4105
  69   2.0000      -0.413054       -11.2398
  70   2.0000      -0.403900       -10.9907
  71   2.0000      -0.398987       -10.8570
  72   2.0000      -0.394153       -10.7255
  73   2.0000      -0.392263       -10.6740
  74   2.0000      -0.387650       -10.5485
  75   2.0000      -0.384242       -10.4558
  76   2.0000      -0.374499       -10.1906
  77   2.0000      -0.373190       -10.1550
  78   2.0000      -0.367772       -10.0076
  79   2.0000      -0.351232        -9.5575
  80   2.0000      -0.342263        -9.3135
  81   2.0000      -0.340047        -9.2531
  82   2.0000      -0.337202        -9.1757
  83   2.0000      -0.335871        -9.1395
  84   2.0000      -0.334963        -9.1148
  85   2.0000      -0.330935        -9.0052
  86   2.0000      -0.326687        -8.8896
  87   2.0000      -0.326490        -8.8842
  88   2.0000      -0.324755        -8.8370
  89   2.0000      -0.324021        -8.8170
  90   2.0000      -0.322065        -8.7638
  91   2.0000      -0.319156        -8.6847
  92   2.0000      -0.316751        -8.6192
  93   2.0000      -0.316009        -8.5991
  94   2.0000      -0.314017        -8.5448
  95   2.0000      -0.312431        -8.5017
  96   2.0000      -0.310275        -8.4430
  97   2.0000      -0.307678        -8.3723
  98   2.0000      -0.304927        -8.2975
  99   2.0000      -0.300517        -8.1775
 100   0.0000      -0.009882        -0.2689
 101   0.0000       0.012613         0.3432
 102   0.0000       0.014066         0.3828
 103   0.0000       0.023340         0.6351
 104   0.0000       0.030743         0.8366

MULLIKEN ATOMIC CHARGES
-----------------------
   0 O :   -0.720283
   1 H :    0.396069
   2 H :    0.337781
   3 O :   -0.781189
   4 H :    0.375472
   5 H :    0.402400
   6 O :   -0.746444
   7 H :    0.376043
   8 H :    0.337564
   9 O :   -0.697097
  10 H :    0.368454
  11 H :    0.367052
  12 O :   -0.744727
  13 H :    0.335540
  14 H :    0.367588
  15 O :   -0.728717
  16 H :    0.339795
  17 H :    0.380111
  18 O :   -0.682447
  19 H :    0.396466
  20 H :    0.351876
  21 O :   -0.780277
  22 H :    0.377194
  23 H :    0.382448
  24 O :   -0.694265
  25 H :    0.391933
  26 H :    0.366500
  27 O :   -0.753762
  28 H :    0.335336
  29 H :    0.378307
  30 O :   -0.747237
  31 H :    0.381940
  32 H :    0.338363
  33 O :   -0.789440
  34 H :    0.362489
  35 H :    0.365855
  36 O :   -0.759632
  37 H :    0.382888
  38 H :    0.384019
  39 O :   -0.689313
  40 H :    0.351520
  41 H :    0.351235
  42 O :   -0.838161
  43 H :    0.397137
  44 H :    0.379690
  45 O :   -0.691620
  46 H :    0.346414
  47 H :    0.357325
  48 O :   -0.702602
  49 H :    0.361566
  50 H :    0.359353
  51 O :   -0.685202
  52 H :    0.389368
  53 H :    0.347115
  54 O :   -0.691501
  55 H :    0.385358
  56 H :    0.358449
  57 O :   -0.757301
  58 H :    0.337435
  59 H :    0.379768
Sum of atomic charges:   -0.0000000

LOEWDIN ATOMIC CHARGES
----------------------
   0 O :   -0.292922
   1 H :    0.147544
   2 H :    0.165391
   3 O :   -0.292763
   4 H :    0.139089
   5 H :    0.145113
   6 O :   -0.311491
   7 H :    0.141675
   8 H :    0.160686
   9 O :   -0.268776
  10 H :    0.143938
  11 H :    0.143900
  12 O :   -0.312484
  13 H :    0.159074
  14 H :    0.138604
  15 O :   -0.291173
  16 H :    0.165398
  17 H :    0.144140
  18 O :   -0.256640
  19 H :    0.150720
  20 H :    0.149462
  21 O :   -0.298418
  22 H :    0.142363
  23 H :    0.133001
  24 O :   -0.258049
  25 H :    0.150069
  26 H :    0.145532
  27 O :   -0.315946
  28 H :    0.157650
  29 H :    0.137881
  30 O :   -0.308032
  31 H :    0.139236
  32 H :    0.160032
  33 O :   -0.288142
  34 H :    0.134148
  35 H :    0.132306
  36 O :   -0.287644
  37 H :    0.142790
  38 H :    0.143093
  39 O :   -0.283641
  40 H :    0.141493
  41 H :    0.143393
  42 O :   -0.328782
  43 H :    0.139760
  44 H :    0.127402
  45 O :   -0.287532
  46 H :    0.143936
  47 H :    0.143146
  48 O :   -0.293593
  49 H :    0.146548
  50 H :    0.143757
  51 O :   -0.269295
  52 H :    0.147910
  53 H :    0.143180
  54 O :   -0.261858
  55 H :    0.150264
  56 H :    0.143844
  57 O :   -0.319031
  58 H :    0.158754
  59 H :    0.139993

  Mayer bond orders larger than 0.1
B(  0-O ,  1-H ) :   0.7584 B(  0-O ,  2-H ) :   0.8870 B(  1-H , 36-O ) :   0.1100
B(  3-O ,  4-H ) :   0.7553 B(  3-O ,  5-H ) :   0.7008 B(  3-O , 19-H ) :   0.1052
B(  3-O , 35-H ) :   0.2374 B(  4-H , 30-O ) :   0.1471 B(  5-H , 45-O ) :   0.1922
B(  6-O ,  7-H ) :   0.6753 B(  6-O ,  8-H ) :   0.8848 B(  6-O , 38-H ) :   0.1407
B(  6-O , 41-H ) :   0.1053 B(  7-H , 18-O ) :   0.2345 B(  9-O , 10-H ) :   0.7935
B(  9-O , 11-H ) :   0.7874 B(  9-O , 31-H ) :   0.2571 B( 10-H , 12-O ) :   0.1145
B( 11-H , 27-O ) :   0.1262 B( 12-O , 13-H ) :   0.8881 B( 12-O , 14-H ) :   0.6684
B( 12-O , 47-H ) :   0.1152 B( 14-H , 51-O ) :   0.2517 B( 15-O , 16-H ) :   0.8845
B( 15-O , 17-H ) :   0.7318 B( 17-H , 42-O ) :   0.1565 B( 18-O , 19-H ) :   0.7771
B( 18-O , 20-H ) :   0.8436 B( 21-O , 22-H ) :   0.7580 B( 21-O , 23-H ) :   0.7697
B( 21-O , 25-H ) :   0.1180 B( 21-O , 52-H ) :   0.1083 B( 22-H , 27-O ) :   0.1490
B( 24-O , 25-H ) :   0.7740 B( 24-O , 26-H ) :   0.8094 B( 24-O , 59-H ) :   0.2764
B( 27-O , 28-H ) :   0.8876 B( 27-O , 29-H ) :   0.6340 B( 29-H , 54-O ) :   0.2800
B( 30-O , 31-H ) :   0.6545 B( 30-O , 32-H ) :   0.8863 B( 30-O , 50-H ) :   0.1090
B( 33-O , 34-H ) :   0.7526 B( 33-O , 35-H ) :   0.6895 B( 33-O , 44-H ) :   0.1352
B( 34-H , 36-O ) :   0.1788 B( 36-O , 37-H ) :   0.7513 B( 36-O , 38-H ) :   0.7602
B( 37-H , 57-O ) :   0.1550 B( 39-O , 40-H ) :   0.8101 B( 39-O , 41-H ) :   0.8209
B( 39-O , 43-H ) :   0.2076 B( 40-H , 57-O ) :   0.1176 B( 42-O , 43-H ) :   0.6964
B( 42-O , 44-H ) :   0.7358 B( 45-O , 46-H ) :   0.8342 B( 45-O , 47-H ) :   0.8078
B( 48-O , 49-H ) :   0.8515 B( 48-O , 50-H ) :   0.8048 B( 48-O , 55-H ) :   0.1529
B( 51-O , 52-H ) :   0.7824 B( 51-O , 53-H ) :   0.8250 B( 54-O , 55-H ) :   0.7519
B( 54-O , 56-H ) :   0.8246 B( 57-O , 58-H ) :   0.8866 B( 57-O , 59-H ) :   0.6372

Dispersion correction           -0.078677966
FINAL SINGLE POINT ENERGY     -1528.909308618574

DIPOLE MOMENT
-------------
                                X             Y             Z
Electronic contribution:     -0.06009       0.34801      -0.04686
Nuclear contribution   :      0.08938      -1.83674       0.75071
                        -----------------------------------------
Total Dipole Moment    :      0.02929      -1.48873       0.70385
                        -----------------------------------------
Magnitude (a.u.)       :      1.64699
Magnitude (Debye)      :      4.18632

                             ****ORCA TERMINATED NORMALLY****
TOTAL RUN TIME: 0 days 0 hours 2 minutes 40 seconds 726 msec
