                         Program Version 3.0.3 - RELEASE   -
|  1> ! wB97X-D3 MA-Def2-TZVP def2-TZVP/J RIJCOSX TightSCF Grid4
|  2>
|  3> %pal nprocs 1 end
|  4>
|  5> %scf
|  6>         maxiter 400
|  7> end
|  8>
|  9> * xyz  0  1
| 10> O  1.742730	-2.298407	2.399808
| 11> H  1.339389	-2.670773	1.570912
| 12> H  2.066285	-3.061176	2.897690
| 13> O  2.708764	0.342188	-0.645374
| 14> H  2.680211	1.324514	-0.766887
| 15> H  3.123552	0.173168	0.254521
| 16> O  1.148682	-3.222175	-2.484835
| 17> H  1.486140	-2.282895	-2.691341
| 18> H  1.740104	-3.826676	-2.952249
| 19> O  1.000602	2.922993	1.370133
| 20> H  1.283580	2.404803	2.156903
| 21> H  0.041195	3.111874	1.465985
| 22> O  1.828626	1.399464	3.438306
| 23> H  2.111233	1.774006	4.282655
| 24> H  1.150188	0.667883	3.658763
| 25> O  -3.322478	0.724539	-1.487747
| 26> H  -3.976219	0.611151	-2.192334
| 27> H  -2.451323	0.452587	-1.901111
| 28> O  1.831636	-0.778927	-2.930353
| 29> H  2.285547	-0.396889	-2.140005
| 30> H  0.964457	-0.333494	-2.969592
| 31> O  -1.371951	0.496929	1.822194
| 32> H  -1.573717	1.463723	1.768792
| 33> H  -0.686076	0.319104	1.128295
| 34> O  -3.116826	-1.135217	0.554655
| 35> H  -2.555391	-0.567975	1.141215
| 36> H  -3.338710	-0.530810	-0.186993
| 37> O  -1.681921	3.151359	1.469007
| 38> H  -2.214046	3.734831	2.025027
| 39> H  -2.033945	3.264602	0.508574
| 40> O  2.116265	2.917559	-0.904684
| 41> H  1.692619	2.976351	0.019022
| 42> H  2.671995	3.700874	-1.007138
| 43> O  0.259069	-0.367926	-0.064202
| 44> H  0.365825	-1.346362	0.042052
| 45> H  1.188660	-0.023898	-0.221148
| 46> O  0.544090	-3.048089	0.144994
| 47> H  -0.419679	-3.290618	0.122597
| 48> H  0.884879	-3.239014	-0.764961
| 49> O  -1.508278	-2.636639	-2.804247
| 50> H  -1.829432	-2.972287	-1.938910
| 51> H  -0.603572	-3.009847	-2.871198
| 52> O  -0.950856	-0.086520	-2.395745
| 53> H  -1.189859	-1.032376	-2.641224
| 54> H  -0.520253	-0.170622	-1.498370
| 55> O  3.446316	-0.119367	1.833302
| 56> H  2.984904	-0.958782	2.038441
| 57> H  2.991877	0.523308	2.422806
| 58> O  -0.300028	2.724325	-2.350468
| 59> H  -0.429142	1.788263	-2.582887
| 60> H  0.578079	2.785117	-1.915707
| 61> O  0.138611	-0.479356	3.812675
| 62> H  -0.547601	-0.163383	3.173020
| 63> H  0.593984	-1.215019	3.351236
| 64> O  -2.497764	3.337063	-0.946565
| 65> H  -1.670351	3.247273	-1.490846
| 66> H  -2.960882	2.492088	-1.125247
| 67> O  -2.069303	-3.338132	-0.163509
| 68> H  -2.656802	-4.045963	0.132283
| 69> H  -2.499021	-2.459521	0.150315
| 70> **                         ****END OF INPUT****

CARTESIAN COORDINATES (ANGSTROEM)
---------------------------------
  O      1.742730   -2.298407    2.399808
  H      1.339389   -2.670773    1.570912
  H      2.066285   -3.061176    2.897690
  O      2.708764    0.342188   -0.645374
  H      2.680211    1.324514   -0.766887
  H      3.123552    0.173168    0.254521
  O      1.148682   -3.222175   -2.484835
  H      1.486140   -2.282895   -2.691341
  H      1.740104   -3.826676   -2.952249
  O      1.000602    2.922993    1.370133
  H      1.283580    2.404803    2.156903
  H      0.041195    3.111874    1.465985
  O      1.828626    1.399464    3.438306
  H      2.111233    1.774006    4.282655
  H      1.150188    0.667883    3.658763
  O     -3.322478    0.724539   -1.487747
  H     -3.976219    0.611151   -2.192334
  H     -2.451323    0.452587   -1.901111
  O      1.831636   -0.778927   -2.930353
  H      2.285547   -0.396889   -2.140005
  H      0.964457   -0.333494   -2.969592
  O     -1.371951    0.496929    1.822194
  H     -1.573717    1.463723    1.768792
  H     -0.686076    0.319104    1.128295
  O     -3.116826   -1.135217    0.554655
  H     -2.555391   -0.567975    1.141215
  H     -3.338710   -0.530810   -0.186993
  O     -1.681921    3.151359    1.469007
  H     -2.214046    3.734831    2.025027
  H     -2.033945    3.264602    0.508574
  O      2.116265    2.917559   -0.904684
  H      1.692619    2.976351    0.019022
  H      2.671995    3.700874   -1.007138
  O      0.259069   -0.367926   -0.064202
  H      0.365825   -1.346362    0.042052
  H      1.188660   -0.023898   -0.221148
  O      0.544090   -3.048089    0.144994
  H     -0.419679   -3.290618    0.122597
  H      0.884879   -3.239014   -0.764961
  O     -1.508278   -2.636639   -2.804247
  H     -1.829432   -2.972287   -1.938910
  H     -0.603572   -3.009847   -2.871198
  O     -0.950856   -0.086520   -2.395745
  H     -1.189859   -1.032376   -2.641224
  H     -0.520253   -0.170622   -1.498370
  O      3.446316   -0.119367    1.833302
  H      2.984904   -0.958782    2.038441
  H      2.991877    0.523308    2.422806
  O     -0.300028    2.724325   -2.350468
  H     -0.429142    1.788263   -2.582887
  H      0.578079    2.785117   -1.915707
  O      0.138611   -0.479356    3.812675
  H     -0.547601   -0.163383    3.173020
  H      0.593984   -1.215019    3.351236
  O     -2.497764    3.337063   -0.946565
  H     -1.670351    3.247273   -1.490846
  H     -2.960882    2.492088   -1.125247
  O     -2.069303   -3.338132   -0.163509
  H     -2.656802   -4.045963    0.132283
  H     -2.499021   -2.459521    0.150315

 Total Charge           Charge          ....    0
 Multiplicity           Mult            ....    1
 Number of Electrons    NEL             ....  200
 Basis Dimension        Dim             ....  940

ORBITAL ENERGIES
----------------

  NO   OCC          E(Eh)            E(eV)
   0   2.0000     -19.261754      -524.1390
   1   2.0000     -19.255764      -523.9760
   2   2.0000     -19.255287      -523.9630
   3   2.0000     -19.251843      -523.8693
   4   2.0000     -19.249708      -523.8112
   5   2.0000     -19.243452      -523.6410
   6   2.0000     -19.242704      -523.6206
   7   2.0000     -19.241482      -523.5873
   8   2.0000     -19.240972      -523.5735
   9   2.0000     -19.237034      -523.4663
  10   2.0000     -19.236993      -523.4652
  11   2.0000     -19.229577      -523.2634
  12   2.0000     -19.229306      -523.2560
  13   2.0000     -19.228818      -523.2427
  14   2.0000     -19.228175      -523.2252
  15   2.0000     -19.225132      -523.1424
  16   2.0000     -19.223063      -523.0861
  17   2.0000     -19.221536      -523.0446
  18   2.0000     -19.219918      -523.0006
  19   2.0000     -19.218540      -522.9631
  20   2.0000      -1.163182       -31.6518
  21   2.0000      -1.154215       -31.4078
  22   2.0000      -1.151001       -31.3203
  23   2.0000      -1.147791       -31.2330
  24   2.0000      -1.145464       -31.1697
  25   2.0000      -1.142025       -31.0761
  26   2.0000      -1.138217       -30.9725
  27   2.0000      -1.137223       -30.9454
  28   2.0000      -1.133188       -30.8356
  29   2.0000      -1.130141       -30.7527
  30   2.0000      -1.126076       -30.6421
  31   2.0000      -1.120909       -30.5015
  32   2.0000      -1.117727       -30.4149
  33   2.0000      -1.114397       -30.3243
  34   2.0000      -1.112752       -30.2795
  35   2.0000      -1.107659       -30.1409
  36   2.0000      -1.104941       -30.0670
  37   2.0000      -1.100888       -29.9567
  38   2.0000      -1.099265       -29.9125
  39   2.0000      -1.097225       -29.8570
  40   2.0000      -0.669812       -18.2265
  41   2.0000      -0.666037       -18.1238
  42   2.0000      -0.659792       -17.9539
  43   2.0000      -0.656879       -17.8746
  44   2.0000      -0.654939       -17.8218
  45   2.0000      -0.654041       -17.7974
  46   2.0000      -0.650477       -17.7004
  47   2.0000      -0.647863       -17.6292
  48   2.0000      -0.646984       -17.6053
  49   2.0000      -0.644399       -17.5350
  50   2.0000      -0.641868       -17.4661
  51   2.0000      -0.639873       -17.4118
  52   2.0000      -0.635405       -17.2903
  53   2.0000      -0.631550       -17.1854
  54   2.0000      -0.630987       -17.1700
  55   2.0000      -0.628658       -17.1066
  56   2.0000      -0.624889       -17.0041
  57   2.0000      -0.623617       -16.9695
  58   2.0000      -0.621059       -16.8999
  59   2.0000      -0.617271       -16.7968
  60   2.0000      -0.577808       -15.7230
  61   2.0000      -0.562819       -15.3151
  62   2.0000      -0.555345       -15.1117
  63   2.0000      -0.551361       -15.0033
  64   2.0000      -0.544426       -14.8146
  65   2.0000      -0.542981       -14.7753
  66   2.0000      -0.530464       -14.4347
  67   2.0000      -0.523439       -14.2435
  68   2.0000      -0.518736       -14.1155
  69   2.0000      -0.512178       -13.9371
  70   2.0000      -0.503861       -13.7108
  71   2.0000      -0.500066       -13.6075
  72   2.0000      -0.494954       -13.4684
  73   2.0000      -0.492710       -13.4073
  74   2.0000      -0.485732       -13.2174
  75   2.0000      -0.482587       -13.1319
  76   2.0000      -0.474282       -12.9059
  77   2.0000      -0.470479       -12.8024
  78   2.0000      -0.467195       -12.7130
  79   2.0000      -0.449967       -12.2442
  80   2.0000      -0.443373       -12.0648
  81   2.0000      -0.441205       -12.0058
  82   2.0000      -0.438294       -11.9266
  83   2.0000      -0.437154       -11.8956
  84   2.0000      -0.435734       -11.8569
  85   2.0000      -0.431201       -11.7336
  86   2.0000      -0.428754       -11.6670
  87   2.0000      -0.426465       -11.6047
  88   2.0000      -0.425771       -11.5858
  89   2.0000      -0.424430       -11.5493
  90   2.0000      -0.422469       -11.4960
  91   2.0000      -0.419576       -11.4172
  92   2.0000      -0.417250       -11.3540
  93   2.0000      -0.416361       -11.3298
  94   2.0000      -0.413690       -11.2571
  95   2.0000      -0.412853       -11.2343
  96   2.0000      -0.410412       -11.1679
  97   2.0000      -0.406010       -11.0481
  98   2.0000      -0.404147       -10.9974
  99   2.0000      -0.400525       -10.8988
 100   0.0000       0.045530         1.2389
 101   0.0000       0.063687         1.7330
 102   0.0000       0.066082         1.7982
 103   0.0000       0.072948         1.9850
 104   0.0000       0.082424         2.2429

MULLIKEN ATOMIC CHARGES
-----------------------
   0 O :   -0.806297
   1 H :    0.405762
   2 H :    0.360371
   3 O :   -0.886100
   4 H :    0.430422
   5 H :    0.462396
   6 O :   -0.853341
   7 H :    0.420713
   8 H :    0.364301
   9 O :   -0.815624
  10 H :    0.428075
  11 H :    0.419477
  12 O :   -0.856704
  13 H :    0.360288
  14 H :    0.417520
  15 O :   -0.778637
  16 H :    0.365414
  17 H :    0.416086
  18 O :   -0.718802
  19 H :    0.433376
  20 H :    0.349117
  21 O :   -0.860632
  22 H :    0.446212
  23 H :    0.406710
  24 O :   -0.772056
  25 H :    0.408531
  26 H :    0.402743
  27 O :   -0.830999
  28 H :    0.360312
  29 H :    0.430333
  30 O :   -0.806052
  31 H :    0.433797
  32 H :    0.361163
  33 O :   -0.775889
  34 H :    0.358919
  35 H :    0.345780
  36 O :   -0.799948
  37 H :    0.433354
  38 H :    0.426004
  39 O :   -0.716892
  40 H :    0.392193
  41 H :    0.395242
  42 O :   -0.932083
  43 H :    0.468854
  44 H :    0.392218
  45 O :   -0.750140
  46 H :    0.380948
  47 H :    0.410351
  48 O :   -0.768407
  49 H :    0.368884
  50 H :    0.405126
  51 O :   -0.735969
  52 H :    0.421965
  53 H :    0.380755
  54 O :   -0.787014
  55 H :    0.447624
  56 H :    0.390677
  57 O :   -0.852382
  58 H :    0.364781
  59 H :    0.437175
Sum of atomic charges:    0.0000000

LOEWDIN ATOMIC CHARGES
----------------------
   0 O :   -0.379313
   1 H :    0.193879
   2 H :    0.194054
   3 O :   -0.392428
   4 H :    0.189247
   5 H :    0.193583
   6 O :   -0.395848
   7 H :    0.188009
   8 H :    0.191544
   9 O :   -0.370670
  10 H :    0.188199
  11 H :    0.187609
  12 O :   -0.392455
  13 H :    0.190174
  14 H :    0.181853
  15 O :   -0.378032
  16 H :    0.194437
  17 H :    0.191451
  18 O :   -0.345195
  19 H :    0.195667
  20 H :    0.193212
  21 O :   -0.390243
  22 H :    0.191786
  23 H :    0.187702
  24 O :   -0.357164
  25 H :    0.194492
  26 H :    0.191920
  27 O :   -0.391785
  28 H :    0.190320
  29 H :    0.187104
  30 O :   -0.387379
  31 H :    0.182971
  32 H :    0.191186
  33 O :   -0.393771
  34 H :    0.187150
  35 H :    0.186511
  36 O :   -0.386437
  37 H :    0.192529
  38 H :    0.197183
  39 O :   -0.368804
  40 H :    0.191063
  41 H :    0.189432
  42 O :   -0.434332
  43 H :    0.191456
  44 H :    0.182013
  45 O :   -0.371432
  46 H :    0.190129
  47 H :    0.189941
  48 O :   -0.370916
  49 H :    0.191221
  50 H :    0.193292
  51 O :   -0.352282
  52 H :    0.189743
  53 H :    0.189014
  54 O :   -0.356468
  55 H :    0.194008
  56 H :    0.188854
  57 O :   -0.396077
  58 H :    0.191424
  59 H :    0.185667

  Mayer bond orders larger than 0.1
B(  0-O ,  1-H ) :   0.8065 B(  0-O ,  2-H ) :   0.8758 B(  3-O ,  4-H ) :   0.8127
B(  3-O ,  5-H ) :   0.7703 B(  3-O , 33-O ) :  -0.1375 B(  3-O , 35-H ) :   0.2128
B(  6-O ,  7-H ) :   0.7388 B(  6-O ,  8-H ) :   0.8738 B(  7-H , 18-O ) :   0.1287
B(  9-O , 10-H ) :   0.8161 B(  9-O , 11-H ) :   0.8158 B( 12-O , 13-H ) :   0.8773
B( 12-O , 14-H ) :   0.7272 B( 14-H , 51-O ) :   0.1555 B( 15-O , 16-H ) :   0.8829
B( 15-O , 17-H ) :   0.8093 B( 18-O , 19-H ) :   0.8136 B( 18-O , 20-H ) :   0.8647
B( 21-O , 22-H ) :   0.8027 B( 21-O , 23-H ) :   0.8349 B( 24-O , 25-H ) :   0.8133
B( 24-O , 26-H ) :   0.8435 B( 24-O , 59-H ) :   0.1284 B( 27-O , 28-H ) :   0.8753
B( 27-O , 29-H ) :   0.7129 B( 29-H , 54-O ) :   0.1517 B( 30-O , 31-H ) :   0.7469
B( 30-O , 32-H ) :   0.8787 B( 33-O , 34-H ) :   0.8025 B( 33-O , 35-H ) :   0.7516
B( 33-O , 42-O ) :  -0.1080 B( 33-O , 44-H ) :   0.1265 B( 34-H , 36-O ) :   0.1431
B( 36-O , 37-H ) :   0.7976 B( 36-O , 38-H ) :   0.8103 B( 39-O , 40-H ) :   0.8633
B( 39-O , 41-H ) :   0.8594 B( 39-O , 42-O ) :   0.1052 B( 42-O , 43-H ) :   0.7797
B( 42-O , 44-H ) :   0.8112 B( 45-O , 46-H ) :   0.8772 B( 45-O , 47-H ) :   0.8479
B( 48-O , 49-H ) :   0.8588 B( 48-O , 50-H ) :   0.8444 B( 51-O , 52-H ) :   0.8239
B( 51-O , 53-H ) :   0.8737 B( 54-O , 55-H ) :   0.8205 B( 54-O , 56-H ) :   0.8661
B( 57-O , 58-H ) :   0.8751 B( 57-O , 59-H ) :   0.7193

Dispersion correction           -0.041442918
FINAL SINGLE POINT ENERGY     -1529.167909186693

DIPOLE MOMENT
-------------
                                X             Y             Z
Electronic contribution:     -0.04756       0.23274      -0.06610
Nuclear contribution   :      0.14709      -1.49341       0.93080
                        -----------------------------------------
Total Dipole Moment    :      0.09953      -1.26067       0.86470
                        -----------------------------------------
Magnitude (a.u.)       :      1.53196
Magnitude (Debye)      :      3.89392

                             ****ORCA TERMINATED NORMALLY****
TOTAL RUN TIME: 0 days 0 hours 48 minutes 27 seconds 8 msec
