                         Program Version 3.0.3 - RELEASE   -
|  1> ! wB97X-D3 Def2-TZVP def2-TZVP/J RIJCOSX TightSCF Grid4 COSMO
|  2>
|  3> %pal nprocs 12 end
|  4>
|  5> %scf
|  6>         maxiter 400
|  7> end
|  8>
|  9> %cosmo
| 10>         SMD true
| 11>         solvent "WATER"
| 12> end
| 13>
| 14> * xyz  0  1
| 15> O  1.751188	-2.237476	2.382720
| 16> H  1.251453	-2.647571	1.608713
| 17> H  2.071333	-2.996846	2.908855
| 18> O  2.560187	0.330925	-0.545280
| 19> H  2.388158	1.330922	-0.554564
| 20> H  3.060602	0.092930	0.324143
| 21> O  1.154056	-3.132361	-2.274090
| 22> H  1.552931	-2.225394	-2.547109
| 23> H  1.715696	-3.814145	-2.692163
| 24> O  1.000094	3.495904	1.634527
| 25> H  1.366835	2.749705	2.202286
| 26> H  0.009870	3.317361	1.605085
| 27> O  2.050548	1.477464	3.063114
| 28> H  2.457460	1.811031	3.888045
| 29> H  1.348318	0.780088	3.384926
| 30> O  -3.233982	0.649246	-1.499116
| 31> H  -3.885074	0.575587	-2.225594
| 32> H  -2.345946	0.387846	-1.915206
| 33> O  1.903392	-0.723168	-2.914800
| 34> H  2.279316	-0.353903	-2.058594
| 35> H  0.985392	-0.348173	-2.929422
| 36> O  -1.462708	0.279033	1.891323
| 37> H  -1.574224	1.282186	1.784745
| 38> H  -0.797915	0.045361	1.161661
| 39> O  -3.410270	-1.036114	0.604862
| 40> H  -2.742540	-0.559692	1.192774
| 41> H  -3.464325	-0.419951	-0.184109
| 42> O  -1.596301	2.871221	1.422698
| 43> H  -2.210028	3.386199	1.983506
| 44> H  -1.931916	3.018948	0.444065
| 45> O  1.771054	2.823497	-0.700669
| 46> H  1.464913	3.135533	0.251644
| 47> H  2.441951	3.476270	-0.984658
| 48> O  0.166005	-0.467373	-0.008312
| 49> H  0.271013	-1.470866	0.107501
| 50> H  1.127936	-0.124659	-0.138607
| 51> O  0.413408	-3.081484	0.258293
| 52> H  -0.585243	-3.198084	0.129947
| 53> H  0.804283	-3.210464	-0.665194
| 54> O  -1.400286	-2.535799	-2.909195
| 55> H  -1.789541	-2.768282	-2.011009
| 56> H  -0.471159	-2.900956	-2.824324
| 57> O  -0.833957	-0.066241	-2.390257
| 58> H  -1.085083	-1.026723	-2.690578
| 59> H  -0.456992	-0.209711	-1.452463
| 60> O  3.571789	-0.309237	1.749808
| 61> H  2.999626	-1.104950	1.954351
| 62> H  3.105636	0.411848	2.275744
| 63> O  -0.256844	2.669026	-2.463851
| 64> H  -0.399737	1.699046	-2.601698
| 65> H  0.514639	2.723911	-1.820613
| 66> O  0.358680	-0.337425	3.746069
| 67> H  -0.410795	-0.125056	3.129907
| 68> H  0.807073	-1.114082	3.300198
| 69> O  -2.406056	3.182288	-0.984650
| 70> H  -1.575244	3.078615	-1.561499
| 71> H  -2.865997	2.309200	-1.150878
| 72> O  -2.140739	-3.044370	-0.371979
| 73> H  -2.710398	-3.829612	-0.249900
| 74> H  -2.666867	-2.248218	0.049170
| 75> **                         ****END OF INPUT****

CARTESIAN COORDINATES (ANGSTROEM)
---------------------------------
  O      1.751188   -2.237476    2.382720
  H      1.251453   -2.647571    1.608713
  H      2.071333   -2.996846    2.908855
  O      2.560187    0.330925   -0.545280
  H      2.388158    1.330922   -0.554564
  H      3.060602    0.092930    0.324143
  O      1.154056   -3.132361   -2.274090
  H      1.552931   -2.225394   -2.547109
  H      1.715696   -3.814145   -2.692163
  O      1.000094    3.495904    1.634527
  H      1.366835    2.749705    2.202286
  H      0.009870    3.317361    1.605085
  O      2.050548    1.477464    3.063114
  H      2.457460    1.811031    3.888045
  H      1.348318    0.780088    3.384926
  O     -3.233982    0.649246   -1.499116
  H     -3.885074    0.575587   -2.225594
  H     -2.345946    0.387846   -1.915206
  O      1.903392   -0.723168   -2.914800
  H      2.279316   -0.353903   -2.058594
  H      0.985392   -0.348173   -2.929422
  O     -1.462708    0.279033    1.891323
  H     -1.574224    1.282186    1.784745
  H     -0.797915    0.045361    1.161661
  O     -3.410270   -1.036114    0.604862
  H     -2.742540   -0.559692    1.192774
  H     -3.464325   -0.419951   -0.184109
  O     -1.596301    2.871221    1.422698
  H     -2.210028    3.386199    1.983506
  H     -1.931916    3.018948    0.444065
  O      1.771054    2.823497   -0.700669
  H      1.464913    3.135533    0.251644
  H      2.441951    3.476270   -0.984658
  O      0.166005   -0.467373   -0.008312
  H      0.271013   -1.470866    0.107501
  H      1.127936   -0.124659   -0.138607
  O      0.413408   -3.081484    0.258293
  H     -0.585243   -3.198084    0.129947
  H      0.804283   -3.210464   -0.665194
  O     -1.400286   -2.535799   -2.909195
  H     -1.789541   -2.768282   -2.011009
  H     -0.471159   -2.900956   -2.824324
  O     -0.833957   -0.066241   -2.390257
  H     -1.085083   -1.026723   -2.690578
  H     -0.456992   -0.209711   -1.452463
  O      3.571789   -0.309237    1.749808
  H      2.999626   -1.104950    1.954351
  H      3.105636    0.411848    2.275744
  O     -0.256844    2.669026   -2.463851
  H     -0.399737    1.699046   -2.601698
  H      0.514639    2.723911   -1.820613
  O      0.358680   -0.337425    3.746069
  H     -0.410795   -0.125056    3.129907
  H      0.807073   -1.114082    3.300198
  O     -2.406056    3.182288   -0.984650
  H     -1.575244    3.078615   -1.561499
  H     -2.865997    2.309200   -1.150878
  O     -2.140739   -3.044370   -0.371979
  H     -2.710398   -3.829612   -0.249900
  H     -2.666867   -2.248218    0.049170

 Total Charge           Charge          ....    0
 Multiplicity           Mult            ....    1
 Number of Electrons    NEL             ....  200
 Basis Dimension        Dim             ....  860

ORBITAL ENERGIES
----------------

  NO   OCC          E(Eh)            E(eV)
   0   2.0000     -19.247375      -523.7477
   1   2.0000     -19.245416      -523.6944
   2   2.0000     -19.243154      -523.6329
   3   2.0000     -19.239873      -523.5436
   4   2.0000     -19.239671      -523.5381
   5   2.0000     -19.238812      -523.5147
   6   2.0000     -19.238423      -523.5041
   7   2.0000     -19.237971      -523.4918
   8   2.0000     -19.237888      -523.4895
   9   2.0000     -19.237083      -523.4676
  10   2.0000     -19.235799      -523.4327
  11   2.0000     -19.230477      -523.2879
  12   2.0000     -19.229660      -523.2657
  13   2.0000     -19.229483      -523.2608
  14   2.0000     -19.227715      -523.2127
  15   2.0000     -19.227408      -523.2044
  16   2.0000     -19.226870      -523.1897
  17   2.0000     -19.226607      -523.1826
  18   2.0000     -19.226543      -523.1808
  19   2.0000     -19.226148      -523.1701
  20   2.0000      -1.155954       -31.4551
  21   2.0000      -1.143213       -31.1084
  22   2.0000      -1.142493       -31.0888
  23   2.0000      -1.138768       -30.9874
  24   2.0000      -1.133748       -30.8509
  25   2.0000      -1.133276       -30.8380
  26   2.0000      -1.130389       -30.7594
  27   2.0000      -1.129826       -30.7441
  28   2.0000      -1.125533       -30.6273
  29   2.0000      -1.121820       -30.5263
  30   2.0000      -1.119814       -30.4717
  31   2.0000      -1.118094       -30.4249
  32   2.0000      -1.114503       -30.3272
  33   2.0000      -1.107232       -30.1293
  34   2.0000      -1.101671       -29.9780
  35   2.0000      -1.097751       -29.8713
  36   2.0000      -1.095845       -29.8195
  37   2.0000      -1.093886       -29.7661
  38   2.0000      -1.093686       -29.7607
  39   2.0000      -1.087370       -29.5889
  40   2.0000      -0.654587       -17.8122
  41   2.0000      -0.647690       -17.6245
  42   2.0000      -0.644692       -17.5430
  43   2.0000      -0.643223       -17.5030
  44   2.0000      -0.639499       -17.4016
  45   2.0000      -0.638132       -17.3645
  46   2.0000      -0.635504       -17.2929
  47   2.0000      -0.634205       -17.2576
  48   2.0000      -0.633241       -17.2314
  49   2.0000      -0.631685       -17.1890
  50   2.0000      -0.630766       -17.1640
  51   2.0000      -0.628752       -17.1092
  52   2.0000      -0.628154       -17.0929
  53   2.0000      -0.626374       -17.0445
  54   2.0000      -0.625380       -17.0175
  55   2.0000      -0.624061       -16.9816
  56   2.0000      -0.620709       -16.8903
  57   2.0000      -0.620381       -16.8814
  58   2.0000      -0.618776       -16.8378
  59   2.0000      -0.616609       -16.7788
  60   2.0000      -0.573774       -15.6132
  61   2.0000      -0.563767       -15.3409
  62   2.0000      -0.558813       -15.2061
  63   2.0000      -0.552317       -15.0293
  64   2.0000      -0.544974       -14.8295
  65   2.0000      -0.543471       -14.7886
  66   2.0000      -0.530651       -14.4397
  67   2.0000      -0.525829       -14.3085
  68   2.0000      -0.520828       -14.1725
  69   2.0000      -0.508977       -13.8500
  70   2.0000      -0.507591       -13.8122
  71   2.0000      -0.500920       -13.6307
  72   2.0000      -0.497194       -13.5293
  73   2.0000      -0.491181       -13.3657
  74   2.0000      -0.489540       -13.3211
  75   2.0000      -0.488226       -13.2853
  76   2.0000      -0.477118       -12.9830
  77   2.0000      -0.475044       -12.9266
  78   2.0000      -0.466554       -12.6956
  79   2.0000      -0.454777       -12.3751
  80   2.0000      -0.430197       -11.7063
  81   2.0000      -0.429561       -11.6890
  82   2.0000      -0.428529       -11.6609
  83   2.0000      -0.426296       -11.6001
  84   2.0000      -0.425733       -11.5848
  85   2.0000      -0.424242       -11.5442
  86   2.0000      -0.423469       -11.5232
  87   2.0000      -0.422542       -11.4979
  88   2.0000      -0.422190       -11.4884
  89   2.0000      -0.420893       -11.4531
  90   2.0000      -0.418646       -11.3919
  91   2.0000      -0.417463       -11.3597
  92   2.0000      -0.414795       -11.2871
  93   2.0000      -0.413890       -11.2625
  94   2.0000      -0.413176       -11.2431
  95   2.0000      -0.412698       -11.2301
  96   2.0000      -0.411012       -11.1842
  97   2.0000      -0.410419       -11.1681
  98   2.0000      -0.407538       -11.0897
  99   2.0000      -0.406763       -11.0686
 100   0.0000       0.081430         2.2158
 101   0.0000       0.116249         3.1633
 102   0.0000       0.119412         3.2494
 103   0.0000       0.129297         3.5183
 104   0.0000       0.147415         4.0114

MULLIKEN ATOMIC CHARGES
-----------------------
   0 O :   -0.763297
   1 H :    0.402782
   2 H :    0.410960
   3 O :   -0.803109
   4 H :    0.389226
   5 H :    0.409220
   6 O :   -0.779743
   7 H :    0.385680
   8 H :    0.412828
   9 O :   -0.759624
  10 H :    0.381469
  11 H :    0.381222
  12 O :   -0.779158
  13 H :    0.406918
  14 H :    0.375775
  15 O :   -0.765295
  16 H :    0.412265
  17 H :    0.377073
  18 O :   -0.753597
  19 H :    0.406007
  20 H :    0.371271
  21 O :   -0.803124
  22 H :    0.396058
  23 H :    0.374296
  24 O :   -0.768708
  25 H :    0.398515
  26 H :    0.383808
  27 O :   -0.778624
  28 H :    0.407890
  29 H :    0.383118
  30 O :   -0.779079
  31 H :    0.383802
  32 H :    0.409818
  33 O :   -0.775187
  34 H :    0.355920
  35 H :    0.357956
  36 O :   -0.778965
  37 H :    0.401016
  38 H :    0.401618
  39 O :   -0.763004
  40 H :    0.375360
  41 H :    0.378694
  42 O :   -0.862190
  43 H :    0.417576
  44 H :    0.361871
  45 O :   -0.769191
  46 H :    0.375847
  47 H :    0.377670
  48 O :   -0.770467
  49 H :    0.389090
  50 H :    0.377310
  51 O :   -0.762511
  52 H :    0.399336
  53 H :    0.372285
  54 O :   -0.768587
  55 H :    0.386313
  56 H :    0.386346
  57 O :   -0.785143
  58 H :    0.410557
  59 H :    0.383838
Sum of atomic charges:   -0.0000000

LOEWDIN ATOMIC CHARGES
----------------------
   0 O :   -0.278264
   1 H :    0.154044
   2 H :    0.195127
   3 O :   -0.308316
   4 H :    0.141584
   5 H :    0.145121
   6 O :   -0.285306
   7 H :    0.150942
   8 H :    0.193149
   9 O :   -0.318387
  10 H :    0.145402
  11 H :    0.145413
  12 O :   -0.294473
  13 H :    0.188859
  14 H :    0.145342
  15 O :   -0.278696
  16 H :    0.194598
  17 H :    0.147275
  18 O :   -0.310737
  19 H :    0.150357
  20 H :    0.150518
  21 O :   -0.312902
  22 H :    0.145200
  23 H :    0.133744
  24 O :   -0.321851
  25 H :    0.147748
  26 H :    0.146269
  27 O :   -0.286649
  28 H :    0.189342
  29 H :    0.145495
  30 O :   -0.288179
  31 H :    0.144424
  32 H :    0.189685
  33 O :   -0.286115
  34 H :    0.136749
  35 H :    0.134540
  36 O :   -0.297171
  37 H :    0.148974
  38 H :    0.147815
  39 O :   -0.324011
  40 H :    0.145747
  41 H :    0.148139
  42 O :   -0.338969
  43 H :    0.143269
  44 H :    0.127904
  45 O :   -0.331388
  46 H :    0.147781
  47 H :    0.145458
  48 O :   -0.334971
  49 H :    0.148029
  50 H :    0.144941
  51 O :   -0.322845
  52 H :    0.145845
  53 H :    0.146604
  54 O :   -0.324383
  55 H :    0.147683
  56 H :    0.148093
  57 O :   -0.291357
  58 H :    0.190205
  59 H :    0.147558

  Mayer bond orders larger than 0.1
B(  0-O ,  1-H ) :   0.7769 B(  0-O ,  2-H ) :   0.8360 B(  0-O , 46-H ) :   0.1069
B(  0-O , 53-H ) :   0.1099 B(  3-O ,  4-H ) :   0.7453 B(  3-O ,  5-H ) :   0.7096
B(  3-O , 35-H ) :   0.2282 B(  4-H , 30-O ) :   0.1478 B(  5-H , 45-O ) :   0.1780
B(  6-O ,  7-H ) :   0.7328 B(  6-O ,  8-H ) :   0.8333 B(  6-O , 38-H ) :   0.1284
B(  6-O , 41-H ) :   0.1117 B(  7-H , 18-O ) :   0.1619 B(  9-O , 10-H ) :   0.7827
B(  9-O , 11-H ) :   0.7793 B(  9-O , 31-H ) :   0.2166 B( 10-H , 12-O ) :   0.1156
B( 11-H , 27-O ) :   0.1228 B( 12-O , 13-H ) :   0.8394 B( 12-O , 14-H ) :   0.7094
B( 12-O , 47-H ) :   0.1227 B( 14-H , 51-O ) :   0.2003 B( 15-O , 16-H ) :   0.8344
B( 15-O , 17-H ) :   0.7667 B( 15-O , 26-H ) :   0.1006 B( 17-H , 42-O ) :   0.1226
B( 18-O , 19-H ) :   0.7802 B( 18-O , 20-H ) :   0.8298 B( 21-O , 22-H ) :   0.7474
B( 21-O , 23-H ) :   0.7728 B( 21-O , 25-H ) :   0.1071 B( 21-O , 52-H ) :   0.1054
B( 22-H , 27-O ) :   0.1415 B( 23-H , 33-O ) :   0.1132 B( 24-O , 25-H ) :   0.7784
B( 24-O , 26-H ) :   0.7929 B( 24-O , 59-H ) :   0.2036 B( 27-O , 28-H ) :   0.8383
B( 27-O , 29-H ) :   0.6971 B( 29-H , 54-O ) :   0.2093 B( 30-O , 31-H ) :   0.6925
B( 30-O , 32-H ) :   0.8369 B( 30-O , 50-H ) :   0.1181 B( 33-O , 34-H ) :   0.7395
B( 33-O , 35-H ) :   0.7049 B( 33-O , 44-H ) :   0.1537 B( 34-H , 36-O ) :   0.2023
B( 36-O , 37-H ) :   0.7523 B( 36-O , 38-H ) :   0.7554 B( 37-H , 57-O ) :   0.1356
B( 39-O , 40-H ) :   0.7856 B( 39-O , 41-H ) :   0.7931 B( 39-O , 43-H ) :   0.1913
B( 40-H , 57-O ) :   0.1237 B( 42-O , 43-H ) :   0.6939 B( 42-O , 44-H ) :   0.7408
B( 45-O , 46-H ) :   0.7986 B( 45-O , 47-H ) :   0.7842 B( 48-O , 49-H ) :   0.8271
B( 48-O , 50-H ) :   0.7833 B( 48-O , 55-H ) :   0.1367 B( 51-O , 52-H ) :   0.7775
B( 51-O , 53-H ) :   0.7969 B( 54-O , 55-H ) :   0.7648 B( 54-O , 56-H ) :   0.7971
B( 57-O , 58-H ) :   0.8364 B( 57-O , 59-H ) :   0.7015

Dispersion correction           -0.042612536
FINAL SINGLE POINT ENERGY     -1529.188525776962

DIPOLE MOMENT
-------------
                                X             Y             Z
Electronic contribution:      0.03783      -0.34218       0.23534
Nuclear contribution   :      0.11395      -2.24726       0.87119
                        -----------------------------------------
Total Dipole Moment    :      0.15177      -2.58944       1.10653
                        -----------------------------------------
Magnitude (a.u.)       :      2.82004
Magnitude (Debye)      :      7.16798

                             ****ORCA TERMINATED NORMALLY****
TOTAL RUN TIME: 0 days 0 hours 2 minutes 58 seconds 306 msec
