                         Program Version 3.0.3 - RELEASE   -
|  1> ! wB97X-D3 MA-Def2-TZVP def2-TZVP/J RIJCOSX TightSCF Grid4
|  2>
|  3> %pal nprocs 1 end
|  4>
|  5> %scf
|  6>         maxiter 400
|  7> end
|  8>
|  9> * xyz  0  1
| 10> O  1.721954	-2.305473	2.392663
| 11> H  1.219857	-2.670177	1.588750
| 12> H  2.020551	-3.089126	2.889575
| 13> O  2.545625	0.343066	-0.590298
| 14> H  2.448955	1.349685	-0.627682
| 15> H  3.062467	0.087768	0.270575
| 16> O  1.202126	-3.153472	-2.258121
| 17> H  1.554641	-2.197008	-2.534214
| 18> H  1.796261	-3.798773	-2.682343
| 19> O  1.019933	3.389170	1.559137
| 20> H  1.380253	2.681582	2.171358
| 21> H  0.022434	3.275092	1.580345
| 22> O  2.046450	1.434702	3.120721
| 23> H  2.418149	1.779293	3.954185
| 24> H  1.317172	0.726696	3.418622
| 25> O  -3.238308	0.610319	-1.587170
| 26> H  -3.866183	0.551317	-2.331293
| 27> H  -2.323877	0.366829	-1.985193
| 28> O  1.883259	-0.799969	-2.891893
| 29> H  2.280366	-0.372556	-2.068805
| 30> H  0.992900	-0.372749	-2.962269
| 31> O  -1.477961	0.316229	1.904879
| 32> H  -1.614992	1.317927	1.842213
| 33> H  -0.803033	0.128828	1.173302
| 34> O  -3.316606	-1.060224	0.557346
| 35> H  -2.708021	-0.548318	1.182583
| 36> H  -3.414855	-0.443371	-0.222234
| 37> O  -1.625363	2.918787	1.483541
| 38> H  -2.206863	3.502209	2.005322
| 39> H  -1.962811	3.020994	0.463012
| 40> O  1.852187	2.864881	-0.748293
| 41> H  1.496125	3.113818	0.226269
| 42> H  2.459164	3.586022	-0.998515
| 43> O  0.149599	-0.388859	-0.022630
| 44> H  0.256670	-1.386301	0.090492
| 45> H  1.115597	-0.050249	-0.165551
| 46> O  0.419493	-3.030281	0.254260
| 47> H  -0.576945	-3.189452	0.143453
| 48> H  0.822173	-3.192821	-0.658163
| 49> O  -1.387567	-2.548144	-2.861074
| 50> H  -1.781193	-2.807905	-1.979214
| 51> H  -0.471535	-2.935591	-2.805731
| 52> O  -0.855873	-0.063887	-2.423572
| 53> H  -1.087253	-1.042820	-2.690907
| 54> H  -0.483934	-0.170371	-1.480620
| 55> O  3.540515	-0.317893	1.687183
| 56> H  3.001220	-1.118900	1.921531
| 57> H  3.111771	0.390087	2.251619
| 58> O  -0.311677	2.727416	-2.405786
| 59> H  -0.410862	1.771948	-2.627746
| 60> H  0.510339	2.775858	-1.838829
| 61> O  0.345285	-0.329354	3.743546
| 62> H  -0.446629	-0.119870	3.155116
| 63> H  0.753707	-1.134261	3.324860
| 64> O  -2.407773	3.129169	-0.876114
| 65> H  -1.588450	3.081756	-1.486452
| 66> H  -2.872793	2.277716	-1.095957
| 67> O  -2.136202	-3.093027	-0.298860
| 68> H  -2.734844	-3.841401	-0.118996
| 69> H  -2.640126	-2.223761	0.088366
| 70> **                         ****END OF INPUT****

CARTESIAN COORDINATES (ANGSTROEM)
---------------------------------
  O      1.721954   -2.305473    2.392663
  H      1.219857   -2.670177    1.588750
  H      2.020551   -3.089126    2.889575
  O      2.545625    0.343066   -0.590298
  H      2.448955    1.349685   -0.627682
  H      3.062467    0.087768    0.270575
  O      1.202126   -3.153472   -2.258121
  H      1.554641   -2.197008   -2.534214
  H      1.796261   -3.798773   -2.682343
  O      1.019933    3.389170    1.559137
  H      1.380253    2.681582    2.171358
  H      0.022434    3.275092    1.580345
  O      2.046450    1.434702    3.120721
  H      2.418149    1.779293    3.954185
  H      1.317172    0.726696    3.418622
  O     -3.238308    0.610319   -1.587170
  H     -3.866183    0.551317   -2.331293
  H     -2.323877    0.366829   -1.985193
  O      1.883259   -0.799969   -2.891893
  H      2.280366   -0.372556   -2.068805
  H      0.992900   -0.372749   -2.962269
  O     -1.477961    0.316229    1.904879
  H     -1.614992    1.317927    1.842213
  H     -0.803033    0.128828    1.173302
  O     -3.316606   -1.060224    0.557346
  H     -2.708021   -0.548318    1.182583
  H     -3.414855   -0.443371   -0.222234
  O     -1.625363    2.918787    1.483541
  H     -2.206863    3.502209    2.005322
  H     -1.962811    3.020994    0.463012
  O      1.852187    2.864881   -0.748293
  H      1.496125    3.113818    0.226269
  H      2.459164    3.586022   -0.998515
  O      0.149599   -0.388859   -0.022630
  H      0.256670   -1.386301    0.090492
  H      1.115597   -0.050249   -0.165551
  O      0.419493   -3.030281    0.254260
  H     -0.576945   -3.189452    0.143453
  H      0.822173   -3.192821   -0.658163
  O     -1.387567   -2.548144   -2.861074
  H     -1.781193   -2.807905   -1.979214
  H     -0.471535   -2.935591   -2.805731
  O     -0.855873   -0.063887   -2.423572
  H     -1.087253   -1.042820   -2.690907
  H     -0.483934   -0.170371   -1.480620
  O      3.540515   -0.317893    1.687183
  H      3.001220   -1.118900    1.921531
  H      3.111771    0.390087    2.251619
  O     -0.311677    2.727416   -2.405786
  H     -0.410862    1.771948   -2.627746
  H      0.510339    2.775858   -1.838829
  O      0.345285   -0.329354    3.743546
  H     -0.446629   -0.119870    3.155116
  H      0.753707   -1.134261    3.324860
  O     -2.407773    3.129169   -0.876114
  H     -1.588450    3.081756   -1.486452
  H     -2.872793    2.277716   -1.095957
  O     -2.136202   -3.093027   -0.298860
  H     -2.734844   -3.841401   -0.118996
  H     -2.640126   -2.223761    0.088366

 Total Charge           Charge          ....    0
 Multiplicity           Mult            ....    1
 Number of Electrons    NEL             ....  200
 Basis Dimension        Dim             ....  940

ORBITAL ENERGIES
----------------

  NO   OCC          E(Eh)            E(eV)
   0   2.0000     -19.263419      -524.1843
   1   2.0000     -19.259793      -524.0856
   2   2.0000     -19.256280      -523.9900
   3   2.0000     -19.251389      -523.8569
   4   2.0000     -19.249882      -523.8159
   5   2.0000     -19.245064      -523.6848
   6   2.0000     -19.243855      -523.6519
   7   2.0000     -19.242900      -523.6259
   8   2.0000     -19.241937      -523.5997
   9   2.0000     -19.240472      -523.5598
  10   2.0000     -19.238948      -523.5184
  11   2.0000     -19.234425      -523.3953
  12   2.0000     -19.234350      -523.3933
  13   2.0000     -19.231536      -523.3167
  14   2.0000     -19.231024      -523.3028
  15   2.0000     -19.230712      -523.2943
  16   2.0000     -19.227599      -523.2096
  17   2.0000     -19.226634      -523.1833
  18   2.0000     -19.225575      -523.1545
  19   2.0000     -19.224018      -523.1121
  20   2.0000      -1.163403       -31.6578
  21   2.0000      -1.153682       -31.3933
  22   2.0000      -1.149919       -31.2909
  23   2.0000      -1.145801       -31.1788
  24   2.0000      -1.142822       -31.0978
  25   2.0000      -1.139058       -30.9953
  26   2.0000      -1.135689       -30.9037
  27   2.0000      -1.134142       -30.8616
  28   2.0000      -1.130095       -30.7514
  29   2.0000      -1.129738       -30.7417
  30   2.0000      -1.123260       -30.5655
  31   2.0000      -1.118734       -30.4423
  32   2.0000      -1.116680       -30.3864
  33   2.0000      -1.110854       -30.2279
  34   2.0000      -1.107423       -30.1345
  35   2.0000      -1.102738       -30.0070
  36   2.0000      -1.099259       -29.9123
  37   2.0000      -1.096756       -29.8442
  38   2.0000      -1.093259       -29.7491
  39   2.0000      -1.089682       -29.6518
  40   2.0000      -0.668355       -18.1869
  41   2.0000      -0.663096       -18.0438
  42   2.0000      -0.658213       -17.9109
  43   2.0000      -0.655734       -17.8434
  44   2.0000      -0.647076       -17.6078
  45   2.0000      -0.646516       -17.5926
  46   2.0000      -0.645226       -17.5575
  47   2.0000      -0.642314       -17.4783
  48   2.0000      -0.640150       -17.4194
  49   2.0000      -0.638942       -17.3865
  50   2.0000      -0.638008       -17.3611
  51   2.0000      -0.634784       -17.2734
  52   2.0000      -0.633436       -17.2367
  53   2.0000      -0.631108       -17.1733
  54   2.0000      -0.630569       -17.1587
  55   2.0000      -0.627458       -17.0740
  56   2.0000      -0.624834       -17.0026
  57   2.0000      -0.621911       -16.9231
  58   2.0000      -0.620727       -16.8908
  59   2.0000      -0.618260       -16.8237
  60   2.0000      -0.585307       -15.9270
  61   2.0000      -0.569576       -15.4990
  62   2.0000      -0.562938       -15.3183
  63   2.0000      -0.557678       -15.1752
  64   2.0000      -0.550328       -14.9752
  65   2.0000      -0.549259       -14.9461
  66   2.0000      -0.535777       -14.5792
  67   2.0000      -0.525535       -14.3005
  68   2.0000      -0.523789       -14.2530
  69   2.0000      -0.515477       -14.0269
  70   2.0000      -0.507637       -13.8135
  71   2.0000      -0.502253       -13.6670
  72   2.0000      -0.496142       -13.5007
  73   2.0000      -0.495250       -13.4764
  74   2.0000      -0.490214       -13.3394
  75   2.0000      -0.486557       -13.2399
  76   2.0000      -0.476511       -12.9665
  77   2.0000      -0.475006       -12.9256
  78   2.0000      -0.469100       -12.7649
  79   2.0000      -0.452358       -12.3093
  80   2.0000      -0.442693       -12.0463
  81   2.0000      -0.439922       -11.9709
  82   2.0000      -0.437023       -11.8920
  83   2.0000      -0.435244       -11.8436
  84   2.0000      -0.434647       -11.8273
  85   2.0000      -0.430247       -11.7076
  86   2.0000      -0.426670       -11.6103
  87   2.0000      -0.425360       -11.5746
  88   2.0000      -0.424367       -11.5476
  89   2.0000      -0.423200       -11.5159
  90   2.0000      -0.421674       -11.4743
  91   2.0000      -0.418749       -11.3947
  92   2.0000      -0.416132       -11.3235
  93   2.0000      -0.415039       -11.2938
  94   2.0000      -0.413878       -11.2622
  95   2.0000      -0.412562       -11.2264
  96   2.0000      -0.409844       -11.1524
  97   2.0000      -0.406731       -11.0677
  98   2.0000      -0.404606       -11.0099
  99   2.0000      -0.401661       -10.9297
 100   0.0000       0.043604         1.1865
 101   0.0000       0.063196         1.7196
 102   0.0000       0.064543         1.7563
 103   0.0000       0.072318         1.9679
 104   0.0000       0.083976         2.2851

MULLIKEN ATOMIC CHARGES
-----------------------
   0 O :   -0.832904
   1 H :    0.422053
   2 H :    0.364379
   3 O :   -0.926006
   4 H :    0.443277
   5 H :    0.482567
   6 O :   -0.878242
   7 H :    0.427875
   8 H :    0.367474
   9 O :   -0.765879
  10 H :    0.410999
  11 H :    0.415802
  12 O :   -0.836664
  13 H :    0.361839
  14 H :    0.414652
  15 O :   -0.800064
  16 H :    0.371180
  17 H :    0.425903
  18 O :   -0.742388
  19 H :    0.444189
  20 H :    0.383475
  21 O :   -0.863126
  22 H :    0.453584
  23 H :    0.400368
  24 O :   -0.778694
  25 H :    0.434156
  26 H :    0.420552
  27 O :   -0.844061
  28 H :    0.360056
  29 H :    0.438022
  30 O :   -0.825961
  31 H :    0.431890
  32 H :    0.362948
  33 O :   -0.773095
  34 H :    0.355224
  35 H :    0.359827
  36 O :   -0.831057
  37 H :    0.438647
  38 H :    0.445546
  39 O :   -0.717724
  40 H :    0.400784
  41 H :    0.404616
  42 O :   -1.052268
  43 H :    0.488028
  44 H :    0.418125
  45 O :   -0.757706
  46 H :    0.397007
  47 H :    0.399626
  48 O :   -0.782673
  49 H :    0.398391
  50 H :    0.408168
  51 O :   -0.754818
  52 H :    0.426705
  53 H :    0.392285
  54 O :   -0.800343
  55 H :    0.466456
  56 H :    0.400073
  57 O :   -0.877532
  58 H :    0.365722
  59 H :    0.438736
Sum of atomic charges:    0.0000000

LOEWDIN ATOMIC CHARGES
----------------------
   0 O :   -0.394196
   1 H :    0.197598
   2 H :    0.199206
   3 O :   -0.407012
   4 H :    0.194053
   5 H :    0.197159
   6 O :   -0.415686
   7 H :    0.191949
   8 H :    0.195945
   9 O :   -0.353610
  10 H :    0.195572
  11 H :    0.195828
  12 O :   -0.417392
  13 H :    0.195307
  14 H :    0.189368
  15 O :   -0.392071
  16 H :    0.200425
  17 H :    0.196731
  18 O :   -0.344036
  19 H :    0.203344
  20 H :    0.202292
  21 O :   -0.407785
  22 H :    0.197067
  23 H :    0.190384
  24 O :   -0.344877
  25 H :    0.201687
  26 H :    0.198415
  27 O :   -0.420530
  28 H :    0.194317
  29 H :    0.186916
  30 O :   -0.411204
  31 H :    0.188440
  32 H :    0.196230
  33 O :   -0.413334
  34 H :    0.191760
  35 H :    0.191398
  36 O :   -0.399277
  37 H :    0.198717
  38 H :    0.199573
  39 O :   -0.369547
  40 H :    0.196218
  41 H :    0.197124
  42 O :   -0.459757
  43 H :    0.195478
  44 H :    0.188617
  45 O :   -0.372263
  46 H :    0.196523
  47 H :    0.195872
  48 O :   -0.376693
  49 H :    0.197807
  50 H :    0.194800
  51 O :   -0.355873
  52 H :    0.198532
  53 H :    0.195921
  54 O :   -0.348423
  55 H :    0.200871
  56 H :    0.195476
  57 O :   -0.424771
  58 H :    0.195154
  59 H :    0.190265

  Mayer bond orders larger than 0.1
B(  0-O ,  1-H ) :   0.7793 B(  0-O ,  2-H ) :   0.8727 B(  3-O ,  4-H ) :   0.7813
B(  3-O ,  5-H ) :   0.7132 B(  3-O , 33-O ) :  -0.1486 B(  3-O , 35-H ) :   0.2559
B(  5-H , 45-O ) :   0.1017 B(  6-O ,  7-H ) :   0.6853 B(  6-O ,  8-H ) :   0.8702
B(  7-H , 18-O ) :   0.1936 B(  9-O , 10-H ) :   0.8236 B(  9-O , 11-H ) :   0.8150
B(  9-O , 31-H ) :   0.1925 B( 12-O , 13-H ) :   0.8787 B( 12-O , 14-H ) :   0.6949
B( 14-H , 51-O ) :   0.1992 B( 15-O , 16-H ) :   0.8751 B( 15-O , 17-H ) :   0.7718
B( 18-O , 19-H ) :   0.7936 B( 18-O , 20-H ) :   0.8517 B( 21-O , 22-H ) :   0.7811
B( 21-O , 23-H ) :   0.8204 B( 24-O , 25-H ) :   0.7931 B( 24-O , 26-H ) :   0.8372
B( 24-O , 59-H ) :   0.2255 B( 27-O , 28-H ) :   0.8759 B( 27-O , 29-H ) :   0.6507
B( 29-H , 54-O ) :   0.2256 B( 30-O , 31-H ) :   0.6763 B( 30-O , 32-H ) :   0.8750
B( 33-O , 34-H ) :   0.7669 B( 33-O , 35-H ) :   0.7025 B( 33-O , 36-O ) :  -0.1063
B( 33-O , 42-O ) :  -0.1253 B( 33-O , 44-H ) :   0.1408 B( 34-H , 36-O ) :   0.2005
B( 36-O , 37-H ) :   0.7691 B( 36-O , 38-H ) :   0.7797 B( 39-O , 40-H ) :   0.8448
B( 39-O , 41-H ) :   0.8480 B( 39-O , 42-O ) :   0.1492 B( 39-O , 43-H ) :   0.1069
B( 42-O , 43-H ) :   0.7351 B( 42-O , 44-H ) :   0.7947 B( 45-O , 46-H ) :   0.8642
B( 45-O , 47-H ) :   0.8347 B( 48-O , 49-H ) :   0.8525 B( 48-O , 50-H ) :   0.8353
B( 51-O , 52-H ) :   0.8066 B( 51-O , 53-H ) :   0.8578 B( 54-O , 55-H ) :   0.7724
B( 54-O , 56-H ) :   0.8466 B( 57-O , 58-H ) :   0.8735 B( 57-O , 59-H ) :   0.6478

Dispersion correction           -0.042496570
FINAL SINGLE POINT ENERGY     -1529.141353077148

DIPOLE MOMENT
-------------
                                X             Y             Z
Electronic contribution:     -0.06569       0.37700      -0.07447
Nuclear contribution   :      0.08938      -1.83674       0.75071
                        -----------------------------------------
Total Dipole Moment    :      0.02369      -1.45975       0.67624
                        -----------------------------------------
Magnitude (a.u.)       :      1.60895
Magnitude (Debye)      :      4.08962

                             ****ORCA TERMINATED NORMALLY****
TOTAL RUN TIME: 0 days 0 hours 48 minutes 51 seconds 260 msec
