                         Program Version 3.0.3 - RELEASE   -
|  1> ! wB97X-D3 Def2-TZVP def2-TZVP/J RIJCOSX TightSCF Grid4
|  2>
|  3> %pal nprocs 12 end
|  4>
|  5> %scf
|  6>         maxiter 400
|  7> end
|  8>
|  9> * xyz  0  1
| 10> O  1.721954	-2.305473	2.392663
| 11> H  1.219857	-2.670177	1.588750
| 12> H  2.020551	-3.089126	2.889575
| 13> O  2.545625	0.343066	-0.590298
| 14> H  2.448955	1.349685	-0.627682
| 15> H  3.062467	0.087768	0.270575
| 16> O  1.202126	-3.153472	-2.258121
| 17> H  1.554641	-2.197008	-2.534214
| 18> H  1.796261	-3.798773	-2.682343
| 19> O  1.019933	3.389170	1.559137
| 20> H  1.380253	2.681582	2.171358
| 21> H  0.022434	3.275092	1.580345
| 22> O  2.046450	1.434702	3.120721
| 23> H  2.418149	1.779293	3.954185
| 24> H  1.317172	0.726696	3.418622
| 25> O  -3.238308	0.610319	-1.587170
| 26> H  -3.866183	0.551317	-2.331293
| 27> H  -2.323877	0.366829	-1.985193
| 28> O  1.883259	-0.799969	-2.891893
| 29> H  2.280366	-0.372556	-2.068805
| 30> H  0.992900	-0.372749	-2.962269
| 31> O  -1.477961	0.316229	1.904879
| 32> H  -1.614992	1.317927	1.842213
| 33> H  -0.803033	0.128828	1.173302
| 34> O  -3.316606	-1.060224	0.557346
| 35> H  -2.708021	-0.548318	1.182583
| 36> H  -3.414855	-0.443371	-0.222234
| 37> O  -1.625363	2.918787	1.483541
| 38> H  -2.206863	3.502209	2.005322
| 39> H  -1.962811	3.020994	0.463012
| 40> O  1.852187	2.864881	-0.748293
| 41> H  1.496125	3.113818	0.226269
| 42> H  2.459164	3.586022	-0.998515
| 43> O  0.149599	-0.388859	-0.022630
| 44> H  0.256670	-1.386301	0.090492
| 45> H  1.115597	-0.050249	-0.165551
| 46> O  0.419493	-3.030281	0.254260
| 47> H  -0.576945	-3.189452	0.143453
| 48> H  0.822173	-3.192821	-0.658163
| 49> O  -1.387567	-2.548144	-2.861074
| 50> H  -1.781193	-2.807905	-1.979214
| 51> H  -0.471535	-2.935591	-2.805731
| 52> O  -0.855873	-0.063887	-2.423572
| 53> H  -1.087253	-1.042820	-2.690907
| 54> H  -0.483934	-0.170371	-1.480620
| 55> O  3.540515	-0.317893	1.687183
| 56> H  3.001220	-1.118900	1.921531
| 57> H  3.111771	0.390087	2.251619
| 58> O  -0.311677	2.727416	-2.405786
| 59> H  -0.410862	1.771948	-2.627746
| 60> H  0.510339	2.775858	-1.838829
| 61> O  0.345285	-0.329354	3.743546
| 62> H  -0.446629	-0.119870	3.155116
| 63> H  0.753707	-1.134261	3.324860
| 64> O  -2.407773	3.129169	-0.876114
| 65> H  -1.588450	3.081756	-1.486452
| 66> H  -2.872793	2.277716	-1.095957
| 67> O  -2.136202	-3.093027	-0.298860
| 68> H  -2.734844	-3.841401	-0.118996
| 69> H  -2.640126	-2.223761	0.088366
| 70> **                         ****END OF INPUT****

CARTESIAN COORDINATES (ANGSTROEM)
---------------------------------
  O      1.721954   -2.305473    2.392663
  H      1.219857   -2.670177    1.588750
  H      2.020551   -3.089126    2.889575
  O      2.545625    0.343066   -0.590298
  H      2.448955    1.349685   -0.627682
  H      3.062467    0.087768    0.270575
  O      1.202126   -3.153472   -2.258121
  H      1.554641   -2.197008   -2.534214
  H      1.796261   -3.798773   -2.682343
  O      1.019933    3.389170    1.559137
  H      1.380253    2.681582    2.171358
  H      0.022434    3.275092    1.580345
  O      2.046450    1.434702    3.120721
  H      2.418149    1.779293    3.954185
  H      1.317172    0.726696    3.418622
  O     -3.238308    0.610319   -1.587170
  H     -3.866183    0.551317   -2.331293
  H     -2.323877    0.366829   -1.985193
  O      1.883259   -0.799969   -2.891893
  H      2.280366   -0.372556   -2.068805
  H      0.992900   -0.372749   -2.962269
  O     -1.477961    0.316229    1.904879
  H     -1.614992    1.317927    1.842213
  H     -0.803033    0.128828    1.173302
  O     -3.316606   -1.060224    0.557346
  H     -2.708021   -0.548318    1.182583
  H     -3.414855   -0.443371   -0.222234
  O     -1.625363    2.918787    1.483541
  H     -2.206863    3.502209    2.005322
  H     -1.962811    3.020994    0.463012
  O      1.852187    2.864881   -0.748293
  H      1.496125    3.113818    0.226269
  H      2.459164    3.586022   -0.998515
  O      0.149599   -0.388859   -0.022630
  H      0.256670   -1.386301    0.090492
  H      1.115597   -0.050249   -0.165551
  O      0.419493   -3.030281    0.254260
  H     -0.576945   -3.189452    0.143453
  H      0.822173   -3.192821   -0.658163
  O     -1.387567   -2.548144   -2.861074
  H     -1.781193   -2.807905   -1.979214
  H     -0.471535   -2.935591   -2.805731
  O     -0.855873   -0.063887   -2.423572
  H     -1.087253   -1.042820   -2.690907
  H     -0.483934   -0.170371   -1.480620
  O      3.540515   -0.317893    1.687183
  H      3.001220   -1.118900    1.921531
  H      3.111771    0.390087    2.251619
  O     -0.311677    2.727416   -2.405786
  H     -0.410862    1.771948   -2.627746
  H      0.510339    2.775858   -1.838829
  O      0.345285   -0.329354    3.743546
  H     -0.446629   -0.119870    3.155116
  H      0.753707   -1.134261    3.324860
  O     -2.407773    3.129169   -0.876114
  H     -1.588450    3.081756   -1.486452
  H     -2.872793    2.277716   -1.095957
  O     -2.136202   -3.093027   -0.298860
  H     -2.734844   -3.841401   -0.118996
  H     -2.640126   -2.223761    0.088366

 Total Charge           Charge          ....    0
 Multiplicity           Mult            ....    1
 Number of Electrons    NEL             ....  200
 Basis Dimension        Dim             ....  860

ORBITAL ENERGIES
----------------

  NO   OCC          E(Eh)            E(eV)
   0   2.0000     -19.260996      -524.1183
   1   2.0000     -19.257642      -524.0271
   2   2.0000     -19.253867      -523.9244
   3   2.0000     -19.249103      -523.7947
   4   2.0000     -19.248028      -523.7655
   5   2.0000     -19.242494      -523.6149
   6   2.0000     -19.242093      -523.6040
   7   2.0000     -19.240321      -523.5557
   8   2.0000     -19.239418      -523.5312
   9   2.0000     -19.237988      -523.4923
  10   2.0000     -19.237327      -523.4743
  11   2.0000     -19.231730      -523.3220
  12   2.0000     -19.231527      -523.3165
  13   2.0000     -19.229429      -523.2594
  14   2.0000     -19.228866      -523.2441
  15   2.0000     -19.227821      -523.2156
  16   2.0000     -19.224061      -523.1133
  17   2.0000     -19.223584      -523.1003
  18   2.0000     -19.222370      -523.0673
  19   2.0000     -19.220568      -523.0182
  20   2.0000      -1.161919       -31.6174
  21   2.0000      -1.152156       -31.3518
  22   2.0000      -1.148254       -31.2456
  23   2.0000      -1.144074       -31.1318
  24   2.0000      -1.141276       -31.0557
  25   2.0000      -1.137498       -30.9529
  26   2.0000      -1.133776       -30.8516
  27   2.0000      -1.132408       -30.8144
  28   2.0000      -1.128347       -30.7039
  29   2.0000      -1.128130       -30.6980
  30   2.0000      -1.121345       -30.5133
  31   2.0000      -1.116833       -30.3906
  32   2.0000      -1.114394       -30.3242
  33   2.0000      -1.108991       -30.1772
  34   2.0000      -1.105841       -30.0915
  35   2.0000      -1.100927       -29.9578
  36   2.0000      -1.097496       -29.8644
  37   2.0000      -1.094627       -29.7863
  38   2.0000      -1.091136       -29.6913
  39   2.0000      -1.087922       -29.6039
  40   2.0000      -0.666977       -18.1494
  41   2.0000      -0.661645       -18.0043
  42   2.0000      -0.656799       -17.8724
  43   2.0000      -0.654337       -17.8054
  44   2.0000      -0.645599       -17.5676
  45   2.0000      -0.644986       -17.5510
  46   2.0000      -0.643637       -17.5143
  47   2.0000      -0.640741       -17.4355
  48   2.0000      -0.638454       -17.3732
  49   2.0000      -0.637252       -17.3405
  50   2.0000      -0.636321       -17.3152
  51   2.0000      -0.633096       -17.2274
  52   2.0000      -0.631645       -17.1879
  53   2.0000      -0.629494       -17.1294
  54   2.0000      -0.628389       -17.0993
  55   2.0000      -0.625725       -17.0268
  56   2.0000      -0.623096       -16.9553
  57   2.0000      -0.619891       -16.8681
  58   2.0000      -0.618647       -16.8342
  59   2.0000      -0.616115       -16.7654
  60   2.0000      -0.583697       -15.8832
  61   2.0000      -0.567891       -15.4531
  62   2.0000      -0.561156       -15.2698
  63   2.0000      -0.555916       -15.1273
  64   2.0000      -0.548611       -14.9285
  65   2.0000      -0.547479       -14.8977
  66   2.0000      -0.533892       -14.5279
  67   2.0000      -0.523752       -14.2520
  68   2.0000      -0.521840       -14.2000
  69   2.0000      -0.513829       -13.9820
  70   2.0000      -0.505749       -13.7621
  71   2.0000      -0.500486       -13.6189
  72   2.0000      -0.494307       -13.4508
  73   2.0000      -0.493375       -13.4254
  74   2.0000      -0.488326       -13.2880
  75   2.0000      -0.484489       -13.1836
  76   2.0000      -0.474335       -12.9073
  77   2.0000      -0.473088       -12.8734
  78   2.0000      -0.467128       -12.7112
  79   2.0000      -0.450242       -12.2517
  80   2.0000      -0.440931       -11.9984
  81   2.0000      -0.438153       -11.9228
  82   2.0000      -0.435265       -11.8442
  83   2.0000      -0.433931       -11.8079
  84   2.0000      -0.432962       -11.7815
  85   2.0000      -0.428662       -11.6645
  86   2.0000      -0.424667       -11.5558
  87   2.0000      -0.423909       -11.5352
  88   2.0000      -0.422451       -11.4955
  89   2.0000      -0.421544       -11.4708
  90   2.0000      -0.419718       -11.4211
  91   2.0000      -0.416854       -11.3432
  92   2.0000      -0.414313       -11.2740
  93   2.0000      -0.413095       -11.2409
  94   2.0000      -0.411898       -11.2083
  95   2.0000      -0.410331       -11.1657
  96   2.0000      -0.407812       -11.0971
  97   2.0000      -0.404649       -11.0111
  98   2.0000      -0.402548       -10.9539
  99   2.0000      -0.399259       -10.8644
 100   0.0000       0.070305         1.9131
 101   0.0000       0.097954         2.6655
 102   0.0000       0.099112         2.6970
 103   0.0000       0.110204         2.9988
 104   0.0000       0.119204         3.2437

MULLIKEN ATOMIC CHARGES
-----------------------
   0 O :   -0.744663
   1 H :    0.399562
   2 H :    0.357543
   3 O :   -0.791983
   4 H :    0.383128
   5 H :    0.413479
   6 O :   -0.775978
   7 H :    0.380356
   8 H :    0.358507
   9 O :   -0.701809
  10 H :    0.371287
  11 H :    0.371470
  12 O :   -0.770167
  13 H :    0.355157
  14 H :    0.370849
  15 O :   -0.750737
  16 H :    0.360202
  17 H :    0.378238
  18 O :   -0.693050
  19 H :    0.404489
  20 H :    0.360661
  21 O :   -0.789279
  22 H :    0.387675
  23 H :    0.370833
  24 O :   -0.703523
  25 H :    0.400804
  26 H :    0.372471
  27 O :   -0.781241
  28 H :    0.354839
  29 H :    0.383365
  30 O :   -0.772833
  31 H :    0.385726
  32 H :    0.357904
  33 O :   -0.771977
  34 H :    0.346776
  35 H :    0.359000
  36 O :   -0.768190
  37 H :    0.393336
  38 H :    0.394314
  39 O :   -0.698696
  40 H :    0.357099
  41 H :    0.359497
  42 O :   -0.847491
  43 H :    0.410212
  44 H :    0.358264
  45 O :   -0.701238
  46 H :    0.352097
  47 H :    0.363086
  48 O :   -0.710132
  49 H :    0.369248
  50 H :    0.362136
  51 O :   -0.693600
  52 H :    0.398007
  53 H :    0.352153
  54 O :   -0.701818
  55 H :    0.392025
  56 H :    0.366153
  57 O :   -0.785741
  58 H :    0.357780
  59 H :    0.384415
Sum of atomic charges:   -0.0000000

LOEWDIN ATOMIC CHARGES
----------------------
   0 O :   -0.297183
   1 H :    0.148247
   2 H :    0.168427
   3 O :   -0.296603
   4 H :    0.140638
   5 H :    0.147360
   6 O :   -0.316948
   7 H :    0.142909
   8 H :    0.164057
   9 O :   -0.269765
  10 H :    0.144886
  11 H :    0.145007
  12 O :   -0.317756
  13 H :    0.162201
  14 H :    0.139941
  15 O :   -0.295819
  16 H :    0.168693
  17 H :    0.145291
  18 O :   -0.258088
  19 H :    0.152288
  20 H :    0.151162
  21 O :   -0.302648
  22 H :    0.144105
  23 H :    0.133615
  24 O :   -0.259293
  25 H :    0.151968
  26 H :    0.146832
  27 O :   -0.321498
  28 H :    0.160760
  29 H :    0.139246
  30 O :   -0.313328
  31 H :    0.140435
  32 H :    0.163110
  33 O :   -0.291141
  34 H :    0.135122
  35 H :    0.134097
  36 O :   -0.291004
  37 H :    0.144550
  38 H :    0.144792
  39 O :   -0.285274
  40 H :    0.142762
  41 H :    0.144930
  42 O :   -0.334244
  43 H :    0.142046
  44 H :    0.127954
  45 O :   -0.289069
  46 H :    0.144872
  47 H :    0.144399
  48 O :   -0.294621
  49 H :    0.147514
  50 H :    0.144573
  51 O :   -0.270670
  52 H :    0.149671
  53 H :    0.144233
  54 O :   -0.263317
  55 H :    0.151789
  56 H :    0.145275
  57 O :   -0.324796
  58 H :    0.161995
  59 H :    0.141310

  Mayer bond orders larger than 0.1
B(  0-O ,  1-H ) :   0.7638 B(  0-O ,  2-H ) :   0.8775 B(  1-H , 36-O ) :   0.1039
B(  3-O ,  4-H ) :   0.7576 B(  3-O ,  5-H ) :   0.7000 B(  3-O , 35-H ) :   0.2381
B(  4-H , 30-O ) :   0.1400 B(  5-H , 45-O ) :   0.1832 B(  6-O ,  7-H ) :   0.6787
B(  6-O ,  8-H ) :   0.8754 B(  6-O , 38-H ) :   0.1319 B(  7-H , 18-O ) :   0.2298
B(  9-O , 10-H ) :   0.7974 B(  9-O , 11-H ) :   0.7906 B(  9-O , 31-H ) :   0.2527
B( 10-H , 12-O ) :   0.1070 B( 11-H , 27-O ) :   0.1183 B( 12-O , 13-H ) :   0.8792
B( 12-O , 14-H ) :   0.6733 B( 12-O , 47-H ) :   0.1063 B( 14-H , 51-O ) :   0.2457
B( 15-O , 16-H ) :   0.8751 B( 15-O , 17-H ) :   0.7406 B( 17-H , 42-O ) :   0.1512
B( 18-O , 19-H ) :   0.7773 B( 18-O , 20-H ) :   0.8422 B( 21-O , 22-H ) :   0.7583
B( 21-O , 23-H ) :   0.7779 B( 21-O , 25-H ) :   0.1074 B( 22-H , 27-O ) :   0.1402
B( 23-H , 33-O ) :   0.1040 B( 24-O , 25-H ) :   0.7751 B( 24-O , 26-H ) :   0.8104
B( 24-O , 59-H ) :   0.2717 B( 27-O , 28-H ) :   0.8789 B( 27-O , 29-H ) :   0.6373
B( 29-H , 54-O ) :   0.2749 B( 30-O , 31-H ) :   0.6580 B( 30-O , 32-H ) :   0.8773
B( 30-O , 50-H ) :   0.1022 B( 33-O , 34-H ) :   0.7604 B( 33-O , 35-H ) :   0.6945
B( 33-O , 44-H ) :   0.1465 B( 34-H , 36-O ) :   0.1852 B( 36-O , 37-H ) :   0.7514
B( 36-O , 38-H ) :   0.7597 B( 37-H , 57-O ) :   0.1454 B( 39-O , 40-H ) :   0.8119
B( 39-O , 41-H ) :   0.8208 B( 39-O , 43-H ) :   0.2008 B( 40-H , 57-O ) :   0.1089
B( 42-O , 43-H ) :   0.6923 B( 42-O , 44-H ) :   0.7450 B( 45-O , 46-H ) :   0.8351
B( 45-O , 47-H ) :   0.8095 B( 48-O , 49-H ) :   0.8505 B( 48-O , 50-H ) :   0.8083
B( 48-O , 55-H ) :   0.1446 B( 51-O , 52-H ) :   0.7838 B( 51-O , 53-H ) :   0.8269
B( 54-O , 55-H ) :   0.7530 B( 54-O , 56-H ) :   0.8251 B( 57-O , 58-H ) :   0.8772
B( 57-O , 59-H ) :   0.6406

Dispersion correction           -0.042496570
FINAL SINGLE POINT ENERGY     -1529.131585674837

DIPOLE MOMENT
-------------
                                X             Y             Z
Electronic contribution:     -0.06187       0.33759      -0.04345
Nuclear contribution   :      0.08938      -1.83674       0.75071
                        -----------------------------------------
Total Dipole Moment    :      0.02751      -1.49916       0.70726
                        -----------------------------------------
Magnitude (a.u.)       :      1.65784
Magnitude (Debye)      :      4.21390

                             ****ORCA TERMINATED NORMALLY****
TOTAL RUN TIME: 0 days 0 hours 2 minutes 46 seconds 715 msec
