                         Program Version 4.2.0 -  RELEASE  -
|  1> # 12h2o.su.etal.mol1,3,4,5,7,8,11
|  2> ! MP2 def2-TZVP EnGrad TightSCF
|  3>
|  4> %pal
|  5>     nprocs 6
|  6> end
|  7>
|  8> %maxcore 8000
|  9>
| 10> %scf
| 11>     ConvForced true
| 12> end
| 13>
| 14> *xyz 0 1
| 15> O  -1.794470000  -0.923410000   2.768350000
| 16> H  -2.338250000  -1.359750000   3.430940000
| 17> H  -0.879480000  -1.303000000   2.865760000
| 18> O  -1.752130000  -0.741530000  -2.896280000
| 19> H  -2.036450000  -0.920500000  -1.984040000
| 20> H  -0.921210000  -1.242140000  -2.984230000
| 21> O  -0.885520000   1.737840000   0.052730000
| 22> H  -1.032320000   2.090180000  -0.841890000
| 23> H  -1.284090000   0.839590000   0.017130000
| 24> O   0.885520000  -1.737840000   0.052730000
| 25> H   1.284090000  -0.839590000   0.017130000
| 26> H   1.032320000  -2.090180000  -0.841890000
| 27> O  -1.737840000  -0.885520000  -0.052730000
| 28> H  -2.090180000  -1.032320000   0.841890000
| 29> H  -0.839590000  -1.284090000  -0.017130000
| 30> O   1.752130000   0.741530000  -2.896280000
| 31> H   2.036450000   0.920500000  -1.984040000
| 32> H   0.921210000   1.242140000  -2.984230000
| 33> O  -0.741530000   1.752130000   2.896280000
| 34> H  -0.920500000   2.036450000   1.984040000
| 35> H  -1.242140000   0.921210000   2.984230000
| 36> *
| 37>
| 38>                          ****END OF INPUT****

CARTESIAN COORDINATES (ANGSTROEM)
---------------------------------
  O     -1.794470   -0.923410    2.768350
  H     -2.338250   -1.359750    3.430940
  H     -0.879480   -1.303000    2.865760
  O     -1.752130   -0.741530   -2.896280
  H     -2.036450   -0.920500   -1.984040
  H     -0.921210   -1.242140   -2.984230
  O     -0.885520    1.737840    0.052730
  H     -1.032320    2.090180   -0.841890
  H     -1.284090    0.839590    0.017130
  O      0.885520   -1.737840    0.052730
  H      1.284090   -0.839590    0.017130
  H      1.032320   -2.090180   -0.841890
  O     -1.737840   -0.885520   -0.052730
  H     -2.090180   -1.032320    0.841890
  H     -0.839590   -1.284090   -0.017130
  O      1.752130    0.741530   -2.896280
  H      2.036450    0.920500   -1.984040
  H      0.921210    1.242140   -2.984230
  O     -0.741530    1.752130    2.896280
  H     -0.920500    2.036450    1.984040
  H     -1.242140    0.921210    2.984230

 Total Charge           Charge          ....    0
 Multiplicity           Mult            ....    1
 Number of Electrons    NEL             ....   70
 Basis Dimension        Dim             ....  301

ORBITAL ENERGIES
----------------

  NO   OCC          E(Eh)            E(eV)
   0   2.0000     -20.619499      -561.0851
   1   2.0000     -20.618118      -561.0475
   2   2.0000     -20.578324      -559.9647
   3   2.0000     -20.573331      -559.8288
   4   2.0000     -20.553745      -559.2958
   5   2.0000     -20.547142      -559.1162
   6   2.0000     -20.508906      -558.0757
   7   2.0000      -1.401520       -38.1373
   8   2.0000      -1.397985       -38.0411
   9   2.0000      -1.364857       -37.1396
  10   2.0000      -1.357207       -36.9315
  11   2.0000      -1.336154       -36.3586
  12   2.0000      -1.328451       -36.1490
  13   2.0000      -1.294056       -35.2131
  14   2.0000      -0.764242       -20.7961
  15   2.0000      -0.757508       -20.6128
  16   2.0000      -0.738653       -20.0998
  17   2.0000      -0.719989       -19.5919
  18   2.0000      -0.709881       -19.3169
  19   2.0000      -0.698035       -18.9945
  20   2.0000      -0.674717       -18.3600
  21   2.0000      -0.651731       -17.7345
  22   2.0000      -0.633575       -17.2404
  23   2.0000      -0.607777       -16.5385
  24   2.0000      -0.595463       -16.2034
  25   2.0000      -0.593056       -16.1379
  26   2.0000      -0.570091       -15.5130
  27   2.0000      -0.558960       -15.2101
  28   2.0000      -0.545367       -14.8402
  29   2.0000      -0.526366       -14.3231
  30   2.0000      -0.522596       -14.2206
  31   2.0000      -0.517843       -14.0912
  32   2.0000      -0.500828       -13.6282
  33   2.0000      -0.493032       -13.4161
  34   2.0000      -0.458706       -12.4820
  35   0.0000       0.071922         1.9571
  36   0.0000       0.101657         2.7662
  37   0.0000       0.126871         3.4523
  38   0.0000       0.141820         3.8591
  39   0.0000       0.169774         4.6198

MULLIKEN ATOMIC CHARGES
-----------------------
   0 O :   -0.717033
   1 H :    0.366565
   2 H :    0.375438
   3 O :   -0.696855
   4 H :    0.374618
   5 H :    0.318572
   6 O :   -0.733271
   7 H :    0.335928
   8 H :    0.360975
   9 O :   -0.688147
  10 H :    0.364863
  11 H :    0.363269
  12 O :   -0.746270
  13 H :    0.384323
  14 H :    0.353433
  15 O :   -0.678887
  16 H :    0.331108
  17 H :    0.348458
  18 O :   -0.724934
  19 H :    0.370370
  20 H :    0.337478
Sum of atomic charges:   -0.0000000

LOEWDIN ATOMIC CHARGES
----------------------
   0 O :   -0.287360
   1 H :    0.169082
   2 H :    0.193500
   3 O :   -0.338104
   4 H :    0.151413
   5 H :    0.154879
   6 O :   -0.341730
   7 H :    0.159859
   8 H :    0.142251
   9 O :   -0.287228
  10 H :    0.180808
  11 H :    0.174629
  12 O :   -0.299588
  13 H :    0.153013
  14 H :    0.140082
  15 O :   -0.328493
  16 H :    0.160089
  17 H :    0.168923
  18 O :   -0.355212
  19 H :    0.151289
  20 H :    0.137901

  Mayer bond orders larger than 0.100000
B(  0-O ,  1-H ) :   0.8308 B(  0-O ,  2-H ) :   0.8172 B(  3-O ,  4-H ) :   0.8150
B(  3-O ,  5-H ) :   0.8600 B(  6-O ,  7-H ) :   0.8488 B(  6-O ,  8-H ) :   0.7733
B(  9-O , 10-H ) :   0.8257 B(  9-O , 11-H ) :   0.8329 B( 12-O , 13-H ) :   0.8013
B( 12-O , 14-H ) :   0.7753 B( 15-O , 16-H ) :   0.8542 B( 15-O , 17-H ) :   0.8415
B( 18-O , 19-H ) :   0.8206 B( 18-O , 20-H ) :   0.8409

MP2 TOTAL ENERGY:     -534.242643781 Eh
FINAL SINGLE POINT ENERGY      -534.242643781145

DIPOLE MOMENT
-------------
                                X             Y             Z
Electronic contribution:      0.02872      -0.18817       0.09178
Nuclear contribution   :      0.19772      -1.58806       0.54442
                        -----------------------------------------
Total Dipole Moment    :      0.22644      -1.77623       0.63620
                        -----------------------------------------
Magnitude (a.u.)       :      1.90027
Magnitude (Debye)      :      4.83011

Rotational constants in cm-1:     0.043558     0.021540     0.019506
Rotational constants in MHz :  1305.841898   645.740738   584.766017

                             ****ORCA TERMINATED NORMALLY****
TOTAL RUN TIME: 0 days 0 hours 2 minutes 16 seconds 758 msec
