                         Program Version 4.2.0 -  RELEASE  -
|  1> # 12meoh.boyd.etal.mol7,11
|  2> ! MP2 def2-TZVP EnGrad TightSCF
|  3>
|  4> %pal
|  5>     nprocs 6
|  6> end
|  7>
|  8> %maxcore 8000
|  9>
| 10> %scf
| 11>     ConvForced true
| 12> end
| 13>
| 14> *xyz 0 1
| 15> O   4.310535586  -1.588322800   0.656128299
| 16> H   3.804372199  -1.630404735  -0.196849819
| 17> C   4.312298137  -2.894980854   1.222112691
| 18> H   4.713177833  -2.819907076   2.237066773
| 19> H   4.957796734  -3.574699304   0.648211180
| 20> H   3.302735989  -3.324433205   1.269756773
| 21> O   3.252955559   0.588596242   1.858934315
| 22> H   3.621209177  -0.251605199   1.476063364
| 23> C   4.040824528   0.944288422   2.989639460
| 24> H   3.670521436   1.902573549   3.363847391
| 25> H   5.103749934   1.055868619   2.734277559
| 26> H   3.948540682   0.200279590   3.792908518
| 27> *
| 28>
| 29>                          ****END OF INPUT****

CARTESIAN COORDINATES (ANGSTROEM)
---------------------------------
  O      4.310536   -1.588323    0.656128
  H      3.804372   -1.630405   -0.196850
  C      4.312298   -2.894981    1.222113
  H      4.713178   -2.819907    2.237067
  H      4.957797   -3.574699    0.648211
  H      3.302736   -3.324433    1.269757
  O      3.252956    0.588596    1.858934
  H      3.621209   -0.251605    1.476063
  C      4.040825    0.944288    2.989639
  H      3.670521    1.902574    3.363847
  H      5.103750    1.055869    2.734278
  H      3.948541    0.200280    3.792909

 Total Charge           Charge          ....    0
 Multiplicity           Mult            ....    1
 Number of Electrons    NEL             ....   36
 Basis Dimension        Dim             ....  172

ORBITAL ENERGIES
----------------

  NO   OCC          E(Eh)            E(eV)
   0   2.0000     -20.590000      -560.2824
   1   2.0000     -20.514226      -558.2205
   2   2.0000     -11.292096      -307.2736
   3   2.0000     -11.248973      -306.1001
   4   2.0000      -1.383536       -37.6479
   5   2.0000      -1.310890       -35.6711
   6   2.0000      -0.943927       -25.6856
   7   2.0000      -0.895408       -24.3653
   8   2.0000      -0.714515       -19.4430
   9   2.0000      -0.674058       -18.3421
  10   2.0000      -0.636305       -17.3148
  11   2.0000      -0.610782       -16.6202
  12   2.0000      -0.590453       -16.0670
  13   2.0000      -0.561851       -15.2888
  14   2.0000      -0.529967       -14.4211
  15   2.0000      -0.487542       -13.2667
  16   2.0000      -0.457424       -12.4471
  17   2.0000      -0.416963       -11.3461
  18   0.0000       0.119129         3.2417
  19   0.0000       0.155853         4.2410
  20   0.0000       0.173084         4.7098
  21   0.0000       0.214711         5.8426
  22   0.0000       0.219930         5.9846

MULLIKEN ATOMIC CHARGES
-----------------------
   0 O :   -0.512551
   1 H :    0.344336
   2 C :   -0.184365
   3 H :    0.140601
   4 H :    0.124729
   5 H :    0.128457
   6 O :   -0.532415
   7 H :    0.339050
   8 C :   -0.164061
   9 H :    0.121216
  10 H :    0.102568
  11 H :    0.092435
Sum of atomic charges:   -0.0000000

LOEWDIN ATOMIC CHARGES
----------------------
   0 O :   -0.074517
   1 H :    0.200239
   2 C :   -0.372598
   3 H :    0.114373
   4 H :    0.104069
   5 H :    0.102374
   6 O :   -0.126176
   7 H :    0.156914
   8 C :   -0.393144
   9 H :    0.105721
  10 H :    0.093087
  11 H :    0.089659

  Mayer bond orders larger than 0.100000
B(  0-O ,  1-H ) :   0.8278 B(  0-O ,  2-C ) :   0.8729 B(  2-C ,  3-H ) :   0.9399
B(  2-C ,  4-H ) :   0.9330 B(  2-C ,  5-H ) :   0.9399 B(  6-O ,  7-H ) :   0.7927
B(  6-O ,  8-C ) :   0.9405 B(  8-C ,  9-H ) :   0.9420 B(  8-C , 10-H ) :   0.9380
B(  8-C , 11-H ) :   0.9389

MP2 TOTAL ENERGY:     -231.022241728 Eh
FINAL SINGLE POINT ENERGY      -231.022241728210

DIPOLE MOMENT
-------------
                                X             Y             Z
Electronic contribution:     -0.92444       1.01609      -2.19647
Nuclear contribution   :      1.23573      -2.29907       1.91936
                        -----------------------------------------
Total Dipole Moment    :      0.31129      -1.28298      -0.27711
                        -----------------------------------------
Magnitude (a.u.)       :      1.34897
Magnitude (Debye)      :      3.42882

Rotational constants in cm-1:     0.548250     0.081349     0.075866
Rotational constants in MHz : 16436.108260  2438.783538  2274.393868

                             ****ORCA TERMINATED NORMALLY****
TOTAL RUN TIME: 0 days 0 hours 0 minutes 26 seconds 176 msec
