                         Program Version 4.2.0 -  RELEASE  -
|  1> # 12h2o.su.etal.mol0,1,3,5,6,7,8
|  2> ! MP2 def2-TZVP EnGrad TightSCF
|  3>
|  4> %pal
|  5>     nprocs 6
|  6> end
|  7>
|  8> %maxcore 8000
|  9>
| 10> %scf
| 11>     ConvForced true
| 12> end
| 13>
| 14> *xyz 0 1
| 15> O   1.794470000   0.923410000   2.768350000
| 16> H   2.338250000   1.359750000   3.430940000
| 17> H   0.879480000   1.303000000   2.865760000
| 18> O  -1.794470000  -0.923410000   2.768350000
| 19> H  -2.338250000  -1.359750000   3.430940000
| 20> H  -0.879480000  -1.303000000   2.865760000
| 21> O  -1.752130000  -0.741530000  -2.896280000
| 22> H  -2.036450000  -0.920500000  -1.984040000
| 23> H  -0.921210000  -1.242140000  -2.984230000
| 24> O   0.885520000  -1.737840000   0.052730000
| 25> H   1.284090000  -0.839590000   0.017130000
| 26> H   1.032320000  -2.090180000  -0.841890000
| 27> O   1.737840000   0.885520000  -0.052730000
| 28> H   2.090180000   1.032320000   0.841890000
| 29> H   0.839590000   1.284090000  -0.017130000
| 30> O  -1.737840000  -0.885520000  -0.052730000
| 31> H  -2.090180000  -1.032320000   0.841890000
| 32> H  -0.839590000  -1.284090000  -0.017130000
| 33> O   1.752130000   0.741530000  -2.896280000
| 34> H   2.036450000   0.920500000  -1.984040000
| 35> H   0.921210000   1.242140000  -2.984230000
| 36> *
| 37>
| 38>                          ****END OF INPUT****

CARTESIAN COORDINATES (ANGSTROEM)
---------------------------------
  O      1.794470    0.923410    2.768350
  H      2.338250    1.359750    3.430940
  H      0.879480    1.303000    2.865760
  O     -1.794470   -0.923410    2.768350
  H     -2.338250   -1.359750    3.430940
  H     -0.879480   -1.303000    2.865760
  O     -1.752130   -0.741530   -2.896280
  H     -2.036450   -0.920500   -1.984040
  H     -0.921210   -1.242140   -2.984230
  O      0.885520   -1.737840    0.052730
  H      1.284090   -0.839590    0.017130
  H      1.032320   -2.090180   -0.841890
  O      1.737840    0.885520   -0.052730
  H      2.090180    1.032320    0.841890
  H      0.839590    1.284090   -0.017130
  O     -1.737840   -0.885520   -0.052730
  H     -2.090180   -1.032320    0.841890
  H     -0.839590   -1.284090   -0.017130
  O      1.752130    0.741530   -2.896280
  H      2.036450    0.920500   -1.984040
  H      0.921210    1.242140   -2.984230

 Total Charge           Charge          ....    0
 Multiplicity           Mult            ....    1
 Number of Electrons    NEL             ....   70
 Basis Dimension        Dim             ....  301

ORBITAL ENERGIES
----------------

  NO   OCC          E(Eh)            E(eV)
   0   2.0000     -20.614948      -560.9613
   1   2.0000     -20.596463      -560.4582
   2   2.0000     -20.594149      -560.3953
   3   2.0000     -20.561597      -559.5095
   4   2.0000     -20.534224      -558.7646
   5   2.0000     -20.521969      -558.4312
   6   2.0000     -20.515455      -558.2539
   7   2.0000      -1.394905       -37.9573
   8   2.0000      -1.380980       -37.5784
   9   2.0000      -1.372061       -37.3357
  10   2.0000      -1.346976       -36.6531
  11   2.0000      -1.316154       -35.8144
  12   2.0000      -1.309727       -35.6395
  13   2.0000      -1.295432       -35.2505
  14   2.0000      -0.760434       -20.6925
  15   2.0000      -0.744695       -20.2642
  16   2.0000      -0.738713       -20.1014
  17   2.0000      -0.716286       -19.4911
  18   2.0000      -0.689987       -18.7755
  19   2.0000      -0.687109       -18.6972
  20   2.0000      -0.664101       -18.0711
  21   2.0000      -0.640428       -17.4269
  22   2.0000      -0.619057       -16.8454
  23   2.0000      -0.611364       -16.6361
  24   2.0000      -0.594818       -16.1858
  25   2.0000      -0.568045       -15.4573
  26   2.0000      -0.560942       -15.2640
  27   2.0000      -0.548112       -14.9149
  28   2.0000      -0.540601       -14.7105
  29   2.0000      -0.532460       -14.4890
  30   2.0000      -0.522419       -14.2157
  31   2.0000      -0.499635       -13.5958
  32   2.0000      -0.481244       -13.0953
  33   2.0000      -0.474020       -12.8987
  34   2.0000      -0.461220       -12.5504
  35   0.0000       0.078075         2.1245
  36   0.0000       0.118261         3.2180
  37   0.0000       0.125785         3.4228
  38   0.0000       0.151525         4.1232
  39   0.0000       0.173583         4.7234

MULLIKEN ATOMIC CHARGES
-----------------------
   0 O :   -0.703888
   1 H :    0.360344
   2 H :    0.362301
   3 O :   -0.704079
   4 H :    0.351652
   5 H :    0.363443
   6 O :   -0.703856
   7 H :    0.374538
   8 H :    0.316763
   9 O :   -0.715861
  10 H :    0.378084
  11 H :    0.350292
  12 O :   -0.729420
  13 H :    0.389918
  14 H :    0.356433
  15 O :   -0.747697
  16 H :    0.365345
  17 H :    0.337511
  18 O :   -0.703365
  19 H :    0.365817
  20 H :    0.335725
Sum of atomic charges:   -0.0000000

LOEWDIN ATOMIC CHARGES
----------------------
   0 O :   -0.311064
   1 H :    0.167660
   2 H :    0.188044
   3 O :   -0.314264
   4 H :    0.163336
   5 H :    0.187256
   6 O :   -0.344266
   7 H :    0.152806
   8 H :    0.153572
   9 O :   -0.310544
  10 H :    0.146154
  11 H :    0.166564
  12 O :   -0.282448
  13 H :    0.157782
  14 H :    0.177178
  15 O :   -0.351941
  16 H :    0.147120
  17 H :    0.135324
  18 O :   -0.339992
  19 H :    0.148547
  20 H :    0.163177

  Mayer bond orders larger than 0.100000
B(  0-O ,  1-H ) :   0.8371 B(  0-O ,  2-H ) :   0.8273 B(  3-O ,  4-H ) :   0.8418
B(  3-O ,  5-H ) :   0.8266 B(  6-O ,  7-H ) :   0.8102 B(  6-O ,  8-H ) :   0.8612
B(  9-O , 10-H ) :   0.7785 B(  9-O , 11-H ) :   0.8410 B( 12-O , 13-H ) :   0.7908
B( 12-O , 14-H ) :   0.8274 B( 15-O , 16-H ) :   0.8200 B( 15-O , 17-H ) :   0.7819
B( 18-O , 19-H ) :   0.8250 B( 18-O , 20-H ) :   0.8497

MP2 TOTAL ENERGY:     -534.243584617 Eh
FINAL SINGLE POINT ENERGY      -534.243584617254

DIPOLE MOMENT
-------------
                                X             Y             Z
Electronic contribution:      0.26135       0.12412       0.21448
Nuclear contribution   :      0.45394       0.45439       3.41168
                        -----------------------------------------
Total Dipole Moment    :      0.71530       0.57851       3.62616
                        -----------------------------------------
Magnitude (a.u.)       :      3.74104
Magnitude (Debye)      :      9.50897

Rotational constants in cm-1:     0.035322     0.026157     0.016910
Rotational constants in MHz :  1058.932968   784.159634   506.939816

                             ****ORCA TERMINATED NORMALLY****
TOTAL RUN TIME: 0 days 0 hours 2 minutes 6 seconds 567 msec
