                         Program Version 4.2.0 -  RELEASE  -
|  1> ! MP2 def2-TZVP EnGrad TightSCF FrozenCore
|  2>
|  3> %pal
|  4>     nprocs 12
|  5> end
|  6>
|  7> %maxcore 8000
|  8>
|  9> %scf
| 10>     ConvForced true
| 11> end
| 12>
| 13> *xyz 0 1
| 14> C     1.077981     2.312580    -1.776508
| 15> H     1.593331     3.054123    -2.392467
| 16> H     0.079708     2.671006    -1.515419
| 17> H     0.979476     1.374807    -2.331154
| 18> C     1.841233     2.060641    -0.557496
| 19> N     2.462576     1.864494     0.405061
| 20> C    -0.992907    -1.911106    -0.757369
| 21> H    -0.276101    -2.391155    -0.084731
| 22> H    -0.635386    -2.017848    -1.784163
| 23> H    -1.981769    -2.365803    -0.650019
| 24> C    -1.080095    -0.494282    -0.419827
| 25> N    -1.170834     0.631870    -0.141761
| 26> C    -4.545439     1.191792     0.101934
| 27> H    -5.047248     1.373096     1.055848
| 28> H    -5.109460     1.682885    -0.695143
| 29> H    -3.533662     1.605905     0.138829
| 30> C    -4.462291    -0.243897    -0.155175
| 31> N    -4.386192    -1.384722    -0.360053
| 32> C     0.620319     0.830101     2.819898
| 33> H     1.513703     1.444828     2.951227
| 34> H     0.117766     0.687712     3.780133
| 35> H    -0.051335     1.336635     2.120717
| 36> C     0.995449    -0.463903     2.257196
| 37> N     1.282808    -1.500380     1.816960
| 38> C     3.781409    -1.291031    -0.184211
| 39> H     4.739822    -1.438276    -0.688792
| 40> H     3.558213    -2.147515     0.455936
| 41> H     3.824603    -0.392642     0.438587
| 42> C     2.718464    -1.128347    -1.171833
| 43> N     1.883586    -0.990270    -1.968642
| 44> *
| 45>
| 46>                          ****END OF INPUT****

CARTESIAN COORDINATES (ANGSTROEM)
---------------------------------
  C      1.077981    2.312580   -1.776508
  H      1.593331    3.054123   -2.392467
  H      0.079708    2.671006   -1.515419
  H      0.979476    1.374807   -2.331154
  C      1.841233    2.060641   -0.557496
  N      2.462576    1.864494    0.405061
  C     -0.992907   -1.911106   -0.757369
  H     -0.276101   -2.391155   -0.084731
  H     -0.635386   -2.017848   -1.784163
  H     -1.981769   -2.365803   -0.650019
  C     -1.080095   -0.494282   -0.419827
  N     -1.170834    0.631870   -0.141761
  C     -4.545439    1.191792    0.101934
  H     -5.047248    1.373096    1.055848
  H     -5.109460    1.682885   -0.695143
  H     -3.533662    1.605905    0.138829
  C     -4.462291   -0.243897   -0.155175
  N     -4.386192   -1.384722   -0.360053
  C      0.620319    0.830101    2.819898
  H      1.513703    1.444828    2.951227
  H      0.117766    0.687712    3.780133
  H     -0.051335    1.336635    2.120717
  C      0.995449   -0.463903    2.257196
  N      1.282808   -1.500380    1.816960
  C      3.781409   -1.291031   -0.184211
  H      4.739822   -1.438276   -0.688792
  H      3.558213   -2.147515    0.455936
  H      3.824603   -0.392642    0.438587
  C      2.718464   -1.128347   -1.171833
  N      1.883586   -0.990270   -1.968642

 Total Charge           Charge          ....    0
 Multiplicity           Mult            ....    1
 Number of Electrons    NEL             ....  110
 Basis Dimension        Dim             ....  555

ORBITAL ENERGIES
----------------

  NO   OCC          E(Eh)            E(eV)
   0   2.0000     -15.568268      -423.6341
   1   2.0000     -15.564125      -423.5214
   2   2.0000     -15.562457      -423.4760
   3   2.0000     -15.561678      -423.4548
   4   2.0000     -15.561259      -423.4434
   5   2.0000     -11.280277      -306.9519
   6   2.0000     -11.279278      -306.9248
   7   2.0000     -11.279138      -306.9209
   8   2.0000     -11.277228      -306.8690
   9   2.0000     -11.276844      -306.8585
  10   2.0000     -11.275543      -306.8231
  11   2.0000     -11.264075      -306.5111
  12   2.0000     -11.263791      -306.5033
  13   2.0000     -11.261496      -306.4409
  14   2.0000     -11.250848      -306.1511
  15   2.0000      -1.216823       -33.1114
  16   2.0000      -1.215239       -33.0683
  17   2.0000      -1.212390       -32.9908
  18   2.0000      -1.210429       -32.9374
  19   2.0000      -1.210197       -32.9311
  20   2.0000      -1.032206       -28.0878
  21   2.0000      -1.024059       -27.8661
  22   2.0000      -1.023011       -27.8376
  23   2.0000      -1.020364       -27.7655
  24   2.0000      -1.013896       -27.5895
  25   2.0000      -0.691319       -18.8117
  26   2.0000      -0.684173       -18.6173
  27   2.0000      -0.682424       -18.5697
  28   2.0000      -0.679680       -18.4950
  29   2.0000      -0.673819       -18.3356
  30   2.0000      -0.625475       -17.0200
  31   2.0000      -0.621766       -16.9191
  32   2.0000      -0.621690       -16.9170
  33   2.0000      -0.617556       -16.8046
  34   2.0000      -0.614620       -16.7246
  35   2.0000      -0.613290       -16.6885
  36   2.0000      -0.611482       -16.6393
  37   2.0000      -0.603794       -16.4301
  38   2.0000      -0.600578       -16.3426
  39   2.0000      -0.597410       -16.2563
  40   2.0000      -0.556380       -15.1399
  41   2.0000      -0.553597       -15.0641
  42   2.0000      -0.552165       -15.0252
  43   2.0000      -0.550867       -14.9899
  44   2.0000      -0.548890       -14.9361
  45   2.0000      -0.464623       -12.6430
  46   2.0000      -0.459429       -12.5017
  47   2.0000      -0.459154       -12.4942
  48   2.0000      -0.457777       -12.4567
  49   2.0000      -0.455811       -12.4033
  50   2.0000      -0.454749       -12.3744
  51   2.0000      -0.452693       -12.3184
  52   2.0000      -0.450305       -12.2534
  53   2.0000      -0.448208       -12.1964
  54   2.0000      -0.447835       -12.1862
  55   0.0000       0.124116         3.3774
  56   0.0000       0.140275         3.8171
  57   0.0000       0.154138         4.1943
  58   0.0000       0.156732         4.2649
  59   0.0000       0.167762         4.5650

MULLIKEN ATOMIC CHARGES
-----------------------
   0 C :   -0.284644
   1 H :    0.168281
   2 H :    0.174663
   3 H :    0.197415
   4 C :   -0.075617
   5 N :   -0.180903
   6 C :   -0.295843
   7 H :    0.189699
   8 H :    0.178998
   9 H :    0.202765
  10 C :   -0.003830
  11 N :   -0.267961
  12 C :   -0.290865
  13 H :    0.166273
  14 H :    0.166598
  15 H :    0.195444
  16 C :   -0.111654
  17 N :   -0.128618
  18 C :   -0.284569
  19 H :    0.183009
  20 H :    0.167919
  21 H :    0.186419
  22 C :   -0.073726
  23 N :   -0.179889
  24 C :   -0.286625
  25 H :    0.167571
  26 H :    0.183940
  27 H :    0.192317
  28 C :   -0.071028
  29 N :   -0.185539
Sum of atomic charges:    0.0000000

LOEWDIN ATOMIC CHARGES
----------------------
   0 C :   -0.285122
   1 H :    0.146711
   2 H :    0.151112
   3 H :    0.155821
   4 C :   -0.198763
   5 N :    0.029401
   6 C :   -0.281619
   7 H :    0.154498
   8 H :    0.153479
   9 H :    0.152794
  10 C :   -0.188434
  11 N :    0.012810
  12 C :   -0.283347
  13 H :    0.149069
  14 H :    0.149277
  15 H :    0.152865
  16 C :   -0.207149
  17 N :    0.036828
  18 C :   -0.285973
  19 H :    0.153292
  20 H :    0.146268
  21 H :    0.153388
  22 C :   -0.198791
  23 N :    0.031246
  24 C :   -0.284951
  25 H :    0.146401
  26 H :    0.153658
  27 H :    0.155053
  28 C :   -0.197735
  29 N :    0.027915

  Mayer bond orders larger than 0.100000
B(  0-C ,  1-H ) :   0.9105 B(  0-C ,  2-H ) :   0.9154 B(  0-C ,  3-H ) :   0.9081
B(  0-C ,  4-C ) :   0.8950 B(  4-C ,  5-N ) :   2.7344 B(  6-C ,  7-H ) :   0.9101
B(  6-C ,  8-H ) :   0.9114 B(  6-C ,  9-H ) :   0.8978 B(  6-C , 10-C ) :   0.8898
B( 10-C , 11-N ) :   2.6214 B( 12-C , 13-H ) :   0.9174 B( 12-C , 14-H ) :   0.9174
B( 12-C , 15-H ) :   0.9055 B( 12-C , 16-C ) :   0.9003 B( 16-C , 17-N ) :   2.7870
B( 18-C , 19-H ) :   0.9145 B( 18-C , 20-H ) :   0.9106 B( 18-C , 21-H ) :   0.9112
B( 18-C , 22-C ) :   0.8962 B( 22-C , 23-N ) :   2.7294 B( 24-C , 25-H ) :   0.9100
B( 24-C , 26-H ) :   0.9142 B( 24-C , 27-H ) :   0.9102 B( 24-C , 28-C ) :   0.8950
B( 28-C , 29-N ) :   2.7266

MP2 TOTAL ENERGY:     -662.459367305 Eh
FINAL SINGLE POINT ENERGY      -662.459367304834

DIPOLE MOMENT
-------------
                                X             Y             Z
Electronic contribution:      0.18328      -3.12554      -0.55521
Nuclear contribution   :     -0.22939       4.49847       0.80307
                        -----------------------------------------
Total Dipole Moment    :     -0.04610       1.37293       0.24786
                        -----------------------------------------
Magnitude (a.u.)       :      1.39589
Magnitude (Debye)      :      3.54807

Rotational constants in cm-1:     0.021571     0.009398     0.009256
Rotational constants in MHz :   646.691619   281.746022   277.490873

                             ****ORCA TERMINATED NORMALLY****
TOTAL RUN TIME: 0 days 0 hours 16 minutes 38 seconds 519 msec
