                         Program Version 4.2.0 -  RELEASE  -
|  1> # 12h2o.su.etal.mol1,6,7,8,11
|  2> ! MP2 def2-TZVP EnGrad TightSCF
|  3>
|  4> %pal
|  5>     nprocs 6
|  6> end
|  7>
|  8> %maxcore 8000
|  9>
| 10> %scf
| 11>     ConvForced true
| 12> end
| 13>
| 14> *xyz 0 1
| 15> O  -1.794470000  -0.923410000   2.768350000
| 16> H  -2.338250000  -1.359750000   3.430940000
| 17> H  -0.879480000  -1.303000000   2.865760000
| 18> O   1.737840000   0.885520000  -0.052730000
| 19> H   2.090180000   1.032320000   0.841890000
| 20> H   0.839590000   1.284090000  -0.017130000
| 21> O  -1.737840000  -0.885520000  -0.052730000
| 22> H  -2.090180000  -1.032320000   0.841890000
| 23> H  -0.839590000  -1.284090000  -0.017130000
| 24> O   1.752130000   0.741530000  -2.896280000
| 25> H   2.036450000   0.920500000  -1.984040000
| 26> H   0.921210000   1.242140000  -2.984230000
| 27> O  -0.741530000   1.752130000   2.896280000
| 28> H  -0.920500000   2.036450000   1.984040000
| 29> H  -1.242140000   0.921210000   2.984230000
| 30> *
| 31>
| 32>                          ****END OF INPUT****

CARTESIAN COORDINATES (ANGSTROEM)
---------------------------------
  O     -1.794470   -0.923410    2.768350
  H     -2.338250   -1.359750    3.430940
  H     -0.879480   -1.303000    2.865760
  O      1.737840    0.885520   -0.052730
  H      2.090180    1.032320    0.841890
  H      0.839590    1.284090   -0.017130
  O     -1.737840   -0.885520   -0.052730
  H     -2.090180   -1.032320    0.841890
  H     -0.839590   -1.284090   -0.017130
  O      1.752130    0.741530   -2.896280
  H      2.036450    0.920500   -1.984040
  H      0.921210    1.242140   -2.984230
  O     -0.741530    1.752130    2.896280
  H     -0.920500    2.036450    1.984040
  H     -1.242140    0.921210    2.984230

 Total Charge           Charge          ....    0
 Multiplicity           Mult            ....    1
 Number of Electrons    NEL             ....   50
 Basis Dimension        Dim             ....  215

ORBITAL ENERGIES
----------------

  NO   OCC          E(Eh)            E(eV)
   0   2.0000     -20.627153      -561.2934
   1   2.0000     -20.588740      -560.2481
   2   2.0000     -20.556573      -559.3728
   3   2.0000     -20.551747      -559.2415
   4   2.0000     -20.528000      -558.5953
   5   2.0000      -1.407306       -38.2947
   6   2.0000      -1.367008       -37.1982
   7   2.0000      -1.338717       -36.4283
   8   2.0000      -1.330731       -36.2110
   9   2.0000      -1.309854       -35.6430
  10   2.0000      -0.773047       -21.0357
  11   2.0000      -0.729535       -19.8517
  12   2.0000      -0.709413       -19.3041
  13   2.0000      -0.701826       -19.0977
  14   2.0000      -0.679814       -18.4987
  15   2.0000      -0.642944       -17.4954
  16   2.0000      -0.607741       -16.5375
  17   2.0000      -0.595556       -16.2059
  18   2.0000      -0.569318       -15.4919
  19   2.0000      -0.550473       -14.9791
  20   2.0000      -0.548338       -14.9210
  21   2.0000      -0.529438       -14.4067
  22   2.0000      -0.503645       -13.7049
  23   2.0000      -0.496846       -13.5199
  24   2.0000      -0.474353       -12.9078
  25   0.0000       0.075805         2.0628
  26   0.0000       0.109904         2.9906
  27   0.0000       0.148964         4.0535
  28   0.0000       0.162121         4.4115
  29   0.0000       0.168206         4.5771

MULLIKEN ATOMIC CHARGES
-----------------------
   0 O :   -0.714281
   1 H :    0.368486
   2 H :    0.367371
   3 O :   -0.695636
   4 H :    0.354076
   5 H :    0.341291
   6 O :   -0.696067
   7 H :    0.362128
   8 H :    0.329693
   9 O :   -0.693412
  10 H :    0.368186
  11 H :    0.320472
  12 O :   -0.699979
  13 H :    0.328120
  14 H :    0.359553
Sum of atomic charges:   -0.0000000

LOEWDIN ATOMIC CHARGES
----------------------
   0 O :   -0.286874
   1 H :    0.169818
   2 H :    0.190668
   3 O :   -0.316987
   4 H :    0.171444
   5 H :    0.170628
   6 O :   -0.344188
   7 H :    0.146458
   8 H :    0.165364
   9 O :   -0.339499
  10 H :    0.152233
  11 H :    0.158537
  12 O :   -0.342631
  13 H :    0.157717
  14 H :    0.147312

  Mayer bond orders larger than 0.100000
B(  0-O ,  1-H ) :   0.8292 B(  0-O ,  2-H ) :   0.8226 B(  3-O ,  4-H ) :   0.8387
B(  3-O ,  5-H ) :   0.8376 B(  6-O ,  7-H ) :   0.8254 B(  6-O ,  8-H ) :   0.8519
B(  9-O , 10-H ) :   0.8234 B(  9-O , 11-H ) :   0.8626 B( 12-O , 13-H ) :   0.8567
B( 12-O , 14-H ) :   0.8214

MP2 TOTAL ENERGY:     -381.586026132 Eh
FINAL SINGLE POINT ENERGY      -381.586026132338

DIPOLE MOMENT
-------------
                                X             Y             Z
Electronic contribution:      0.01193      -0.11162       0.01406
Nuclear contribution   :     -0.71164      -0.56846       2.18115
                        -----------------------------------------
Total Dipole Moment    :     -0.69972      -0.68008       2.19521
                        -----------------------------------------
Magnitude (a.u.)       :      2.40230
Magnitude (Debye)      :      6.10617

Rotational constants in cm-1:     0.090837     0.028911     0.023542
Rotational constants in MHz :  2723.221819   866.742113   705.774976

                             ****ORCA TERMINATED NORMALLY****
TOTAL RUN TIME: 0 days 0 hours 0 minutes 37 seconds 988 msec
