                         Program Version 4.2.0 -  RELEASE  -
|  1> # 12h2o.su.etal.mol2,3,4,6,7,11
|  2> ! MP2 def2-TZVP EnGrad TightSCF
|  3>
|  4> %pal
|  5>     nprocs 6
|  6> end
|  7>
|  8> %maxcore 8000
|  9>
| 10> %scf
| 11>     ConvForced true
| 12> end
| 13>
| 14> *xyz 0 1
| 15> O   0.923410000  -1.794470000  -2.768350000
| 16> H   1.359750000  -2.338250000  -3.430940000
| 17> H   1.303000000  -0.879480000  -2.865760000
| 18> O  -1.752130000  -0.741530000  -2.896280000
| 19> H  -2.036450000  -0.920500000  -1.984040000
| 20> H  -0.921210000  -1.242140000  -2.984230000
| 21> O  -0.885520000   1.737840000   0.052730000
| 22> H  -1.032320000   2.090180000  -0.841890000
| 23> H  -1.284090000   0.839590000   0.017130000
| 24> O   1.737840000   0.885520000  -0.052730000
| 25> H   2.090180000   1.032320000   0.841890000
| 26> H   0.839590000   1.284090000  -0.017130000
| 27> O  -1.737840000  -0.885520000  -0.052730000
| 28> H  -2.090180000  -1.032320000   0.841890000
| 29> H  -0.839590000  -1.284090000  -0.017130000
| 30> O  -0.741530000   1.752130000   2.896280000
| 31> H  -0.920500000   2.036450000   1.984040000
| 32> H  -1.242140000   0.921210000   2.984230000
| 33> *
| 34>
| 35>                          ****END OF INPUT****

CARTESIAN COORDINATES (ANGSTROEM)
---------------------------------
  O      0.923410   -1.794470   -2.768350
  H      1.359750   -2.338250   -3.430940
  H      1.303000   -0.879480   -2.865760
  O     -1.752130   -0.741530   -2.896280
  H     -2.036450   -0.920500   -1.984040
  H     -0.921210   -1.242140   -2.984230
  O     -0.885520    1.737840    0.052730
  H     -1.032320    2.090180   -0.841890
  H     -1.284090    0.839590    0.017130
  O      1.737840    0.885520   -0.052730
  H      2.090180    1.032320    0.841890
  H      0.839590    1.284090   -0.017130
  O     -1.737840   -0.885520   -0.052730
  H     -2.090180   -1.032320    0.841890
  H     -0.839590   -1.284090   -0.017130
  O     -0.741530    1.752130    2.896280
  H     -0.920500    2.036450    1.984040
  H     -1.242140    0.921210    2.984230

 Total Charge           Charge          ....    0
 Multiplicity           Mult            ....    1
 Number of Electrons    NEL             ....   60
 Basis Dimension        Dim             ....  258

ORBITAL ENERGIES
----------------

  NO   OCC          E(Eh)            E(eV)
   0   2.0000     -20.626977      -561.2886
   1   2.0000     -20.587309      -560.2092
   2   2.0000     -20.585182      -560.1513
   3   2.0000     -20.548985      -559.1663
   4   2.0000     -20.534264      -558.7657
   5   2.0000     -20.523193      -558.4645
   6   2.0000      -1.410580       -38.3838
   7   2.0000      -1.372846       -37.3570
   8   2.0000      -1.365033       -37.1444
   9   2.0000      -1.330529       -36.2055
  10   2.0000      -1.315130       -35.7865
  11   2.0000      -1.308345       -35.6019
  12   2.0000      -0.767117       -20.8743
  13   2.0000      -0.742692       -20.2097
  14   2.0000      -0.732168       -19.9233
  15   2.0000      -0.701825       -19.0976
  16   2.0000      -0.691253       -18.8100
  17   2.0000      -0.689099       -18.7513
  18   2.0000      -0.646809       -17.6006
  19   2.0000      -0.621631       -16.9154
  20   2.0000      -0.602711       -16.4006
  21   2.0000      -0.574850       -15.6425
  22   2.0000      -0.570788       -15.5319
  23   2.0000      -0.554736       -15.0951
  24   2.0000      -0.547064       -14.8864
  25   2.0000      -0.522345       -14.2137
  26   2.0000      -0.520056       -14.1514
  27   2.0000      -0.495046       -13.4709
  28   2.0000      -0.482655       -13.1337
  29   2.0000      -0.472796       -12.8654
  30   0.0000       0.077937         2.1208
  31   0.0000       0.116091         3.1590
  32   0.0000       0.145712         3.9650
  33   0.0000       0.165061         4.4915
  34   0.0000       0.170065         4.6277

MULLIKEN ATOMIC CHARGES
-----------------------
   0 O :   -0.704229
   1 H :    0.353343
   2 H :    0.371495
   3 O :   -0.723069
   4 H :    0.359791
   5 H :    0.348368
   6 O :   -0.735474
   7 H :    0.368536
   8 H :    0.365085
   9 O :   -0.726791
  10 H :    0.337115
  11 H :    0.355847
  12 O :   -0.713426
  13 H :    0.361687
  14 H :    0.384821
  15 O :   -0.686017
  16 H :    0.374057
  17 H :    0.308861
Sum of atomic charges:   -0.0000000

LOEWDIN ATOMIC CHARGES
----------------------
   0 O :   -0.313938
   1 H :    0.164017
   2 H :    0.192054
   3 O :   -0.352183
   4 H :    0.145617
   5 H :    0.143313
   6 O :   -0.294532
   7 H :    0.175383
   8 H :    0.144542
   9 O :   -0.365453
  10 H :    0.161968
  11 H :    0.139201
  12 O :   -0.273116
  13 H :    0.173377
  14 H :    0.189327
  15 O :   -0.335011
  16 H :    0.152404
  17 H :    0.153031

  Mayer bond orders larger than 0.100000
B(  0-O ,  1-H ) :   0.8413 B(  0-O ,  2-H ) :   0.8213 B(  3-O ,  4-H ) :   0.8362
B(  3-O ,  5-H ) :   0.8222 B(  6-O ,  7-H ) :   0.8279 B(  6-O ,  8-H ) :   0.7740
B(  9-O , 10-H ) :   0.8523 B(  9-O , 11-H ) :   0.7975 B( 12-O , 13-H ) :   0.8314
B( 12-O , 14-H ) :   0.8095 B( 15-O , 16-H ) :   0.8171 B( 15-O , 17-H ) :   0.8679

MP2 TOTAL ENERGY:     -457.919194900 Eh
FINAL SINGLE POINT ENERGY      -457.919194899886

DIPOLE MOMENT
-------------
                                X             Y             Z
Electronic contribution:     -0.10403      -0.01912      -0.11899
Nuclear contribution   :      0.11452      -1.16604       0.14168
                        -----------------------------------------
Total Dipole Moment    :      0.01049      -1.18516       0.02269
                        -----------------------------------------
Magnitude (a.u.)       :      1.18542
Magnitude (Debye)      :      3.01310

Rotational constants in cm-1:     0.068080     0.027211     0.022559
Rotational constants in MHz :  2040.988503   815.775371   676.305090

                             ****ORCA TERMINATED NORMALLY****
TOTAL RUN TIME: 0 days 0 hours 1 minutes 5 seconds 70 msec
