                         Program Version 4.2.0 -  RELEASE  -
|  1> # 12h2o.su.etal.mol3,4,5,7,8
|  2> ! MP2 def2-TZVP EnGrad TightSCF
|  3>
|  4> %pal
|  5>     nprocs 6
|  6> end
|  7>
|  8> %maxcore 8000
|  9>
| 10> %scf
| 11>     ConvForced true
| 12> end
| 13>
| 14> *xyz 0 1
| 15> O  -1.752130000  -0.741530000  -2.896280000
| 16> H  -2.036450000  -0.920500000  -1.984040000
| 17> H  -0.921210000  -1.242140000  -2.984230000
| 18> O  -0.885520000   1.737840000   0.052730000
| 19> H  -1.032320000   2.090180000  -0.841890000
| 20> H  -1.284090000   0.839590000   0.017130000
| 21> O   0.885520000  -1.737840000   0.052730000
| 22> H   1.284090000  -0.839590000   0.017130000
| 23> H   1.032320000  -2.090180000  -0.841890000
| 24> O  -1.737840000  -0.885520000  -0.052730000
| 25> H  -2.090180000  -1.032320000   0.841890000
| 26> H  -0.839590000  -1.284090000  -0.017130000
| 27> O   1.752130000   0.741530000  -2.896280000
| 28> H   2.036450000   0.920500000  -1.984040000
| 29> H   0.921210000   1.242140000  -2.984230000
| 30> *
| 31>
| 32>                          ****END OF INPUT****

CARTESIAN COORDINATES (ANGSTROEM)
---------------------------------
  O     -1.752130   -0.741530   -2.896280
  H     -2.036450   -0.920500   -1.984040
  H     -0.921210   -1.242140   -2.984230
  O     -0.885520    1.737840    0.052730
  H     -1.032320    2.090180   -0.841890
  H     -1.284090    0.839590    0.017130
  O      0.885520   -1.737840    0.052730
  H      1.284090   -0.839590    0.017130
  H      1.032320   -2.090180   -0.841890
  O     -1.737840   -0.885520   -0.052730
  H     -2.090180   -1.032320    0.841890
  H     -0.839590   -1.284090   -0.017130
  O      1.752130    0.741530   -2.896280
  H      2.036450    0.920500   -1.984040
  H      0.921210    1.242140   -2.984230

 Total Charge           Charge          ....    0
 Multiplicity           Mult            ....    1
 Number of Electrons    NEL             ....   50
 Basis Dimension        Dim             ....  215

ORBITAL ENERGIES
----------------

  NO   OCC          E(Eh)            E(eV)
   0   2.0000     -20.617154      -561.0213
   1   2.0000     -20.589862      -560.2786
   2   2.0000     -20.577982      -559.9554
   3   2.0000     -20.549288      -559.1746
   4   2.0000     -20.541617      -558.9658
   5   2.0000      -1.399535       -38.0833
   6   2.0000      -1.376215       -37.4487
   7   2.0000      -1.356869       -36.9223
   8   2.0000      -1.330872       -36.2149
   9   2.0000      -1.322260       -35.9805
  10   2.0000      -0.755003       -20.5447
  11   2.0000      -0.746061       -20.3014
  12   2.0000      -0.719667       -19.5831
  13   2.0000      -0.702506       -19.1162
  14   2.0000      -0.696273       -18.9466
  15   2.0000      -0.643926       -17.5221
  16   2.0000      -0.618017       -16.8171
  17   2.0000      -0.594716       -16.1830
  18   2.0000      -0.579059       -15.7570
  19   2.0000      -0.565717       -15.3940
  20   2.0000      -0.549857       -14.9624
  21   2.0000      -0.525555       -14.3011
  22   2.0000      -0.522246       -14.2110
  23   2.0000      -0.495226       -13.4758
  24   2.0000      -0.489484       -13.3195
  25   0.0000       0.074727         2.0334
  26   0.0000       0.128023         3.4837
  27   0.0000       0.136709         3.7201
  28   0.0000       0.147507         4.0139
  29   0.0000       0.195303         5.3145

MULLIKEN ATOMIC CHARGES
-----------------------
   0 O :   -0.694642
   1 H :    0.372457
   2 H :    0.319793
   3 O :   -0.719545
   4 H :    0.328307
   5 H :    0.357100
   6 O :   -0.681565
   7 H :    0.362238
   8 H :    0.360818
   9 O :   -0.733761
  10 H :    0.362925
  11 H :    0.365767
  12 O :   -0.679304
  13 H :    0.330528
  14 H :    0.348883
Sum of atomic charges:   -0.0000000

LOEWDIN ATOMIC CHARGES
----------------------
   0 O :   -0.336068
   1 H :    0.151858
   2 H :    0.155597
   3 O :   -0.361138
   4 H :    0.156563
   5 H :    0.139868
   6 O :   -0.283496
   7 H :    0.179994
   8 H :    0.173460
   9 O :   -0.295603
  10 H :    0.173483
  11 H :    0.145366
  12 O :   -0.328753
  13 H :    0.159829
  14 H :    0.169037

  Mayer bond orders larger than 0.100000
B(  0-O ,  1-H ) :   0.8183 B(  0-O ,  2-H ) :   0.8593 B(  3-O ,  4-H ) :   0.8567
B(  3-O ,  5-H ) :   0.7965 B(  6-O ,  7-H ) :   0.8275 B(  6-O ,  8-H ) :   0.8341
B(  9-O , 10-H ) :   0.8326 B(  9-O , 11-H ) :   0.7671 B( 12-O , 13-H ) :   0.8543
B( 12-O , 14-H ) :   0.8412

MP2 TOTAL ENERGY:     -381.595336906 Eh
FINAL SINGLE POINT ENERGY      -381.595336906322

DIPOLE MOMENT
-------------
                                X             Y             Z
Electronic contribution:      0.06363      -0.23037       0.05814
Nuclear contribution   :      0.45439      -0.45394       0.59793
                        -----------------------------------------
Total Dipole Moment    :      0.51802      -0.68431       0.65607
                        -----------------------------------------
Magnitude (a.u.)       :      1.08031
Magnitude (Debye)      :      2.74592

Rotational constants in cm-1:     0.060180     0.047291     0.045666
Rotational constants in MHz :  1804.153791  1417.751573  1369.022351

                             ****ORCA TERMINATED NORMALLY****
TOTAL RUN TIME: 0 days 0 hours 0 minutes 34 seconds 548 msec
