                         Program Version 4.2.0 -  RELEASE  -
|  1> # 12h2o.su.etal.mol0,2,3,10
|  2> ! MP2 def2-TZVP EnGrad TightSCF
|  3>
|  4> %pal
|  5>     nprocs 6
|  6> end
|  7>
|  8> %maxcore 8000
|  9>
| 10> %scf
| 11>     ConvForced true
| 12> end
| 13>
| 14> *xyz 0 1
| 15> O   1.794470000   0.923410000   2.768350000
| 16> H   2.338250000   1.359750000   3.430940000
| 17> H   0.879480000   1.303000000   2.865760000
| 18> O   0.923410000  -1.794470000  -2.768350000
| 19> H   1.359750000  -2.338250000  -3.430940000
| 20> H   1.303000000  -0.879480000  -2.865760000
| 21> O  -1.752130000  -0.741530000  -2.896280000
| 22> H  -2.036450000  -0.920500000  -1.984040000
| 23> H  -0.921210000  -1.242140000  -2.984230000
| 24> O  -0.923410000   1.794470000  -2.768350000
| 25> H  -1.359750000   2.338250000  -3.430940000
| 26> H  -1.303000000   0.879480000  -2.865760000
| 27> *
| 28>
| 29>                          ****END OF INPUT****

CARTESIAN COORDINATES (ANGSTROEM)
---------------------------------
  O      1.794470    0.923410    2.768350
  H      2.338250    1.359750    3.430940
  H      0.879480    1.303000    2.865760
  O      0.923410   -1.794470   -2.768350
  H      1.359750   -2.338250   -3.430940
  H      1.303000   -0.879480   -2.865760
  O     -1.752130   -0.741530   -2.896280
  H     -2.036450   -0.920500   -1.984040
  H     -0.921210   -1.242140   -2.984230
  O     -0.923410    1.794470   -2.768350
  H     -1.359750    2.338250   -3.430940
  H     -1.303000    0.879480   -2.865760

 Total Charge           Charge          ....    0
 Multiplicity           Mult            ....    1
 Number of Electrons    NEL             ....   40
 Basis Dimension        Dim             ....  172

ORBITAL ENERGIES
----------------

  NO   OCC          E(Eh)            E(eV)
   0   2.0000     -20.591101      -560.3123
   1   2.0000     -20.565642      -559.6196
   2   2.0000     -20.558637      -559.4290
   3   2.0000     -20.512572      -558.1755
   4   2.0000      -1.370023       -37.2802
   5   2.0000      -1.353113       -36.8201
   6   2.0000      -1.333979       -36.2994
   7   2.0000      -1.294566       -35.2269
   8   2.0000      -0.737070       -20.0567
   9   2.0000      -0.714774       -19.4500
  10   2.0000      -0.702392       -19.1131
  11   2.0000      -0.682402       -18.5691
  12   2.0000      -0.614798       -16.7295
  13   2.0000      -0.587670       -15.9913
  14   2.0000      -0.569858       -15.5066
  15   2.0000      -0.544989       -14.8299
  16   2.0000      -0.530413       -14.4333
  17   2.0000      -0.501766       -13.6537
  18   2.0000      -0.497022       -13.5247
  19   2.0000      -0.463311       -12.6073
  20   0.0000       0.111126         3.0239
  21   0.0000       0.129660         3.5282
  22   0.0000       0.155132         4.2214
  23   0.0000       0.179772         4.8919
  24   0.0000       0.198063         5.3896

MULLIKEN ATOMIC CHARGES
-----------------------
   0 O :   -0.681106
   1 H :    0.337415
   2 H :    0.343691
   3 O :   -0.701351
   4 H :    0.354270
   5 H :    0.371523
   6 O :   -0.700697
   7 H :    0.353067
   8 H :    0.372961
   9 O :   -0.736639
  10 H :    0.323077
  11 H :    0.363788
Sum of atomic charges:   -0.0000000

LOEWDIN ATOMIC CHARGES
----------------------
   0 O :   -0.338561
   1 H :    0.157170
   2 H :    0.181390
   3 O :   -0.310389
   4 H :    0.164701
   5 H :    0.192842
   6 O :   -0.283898
   7 H :    0.171284
   8 H :    0.153253
   9 O :   -0.375751
  10 H :    0.147305
  11 H :    0.140655

  Mayer bond orders larger than 0.100000
B(  0-O ,  1-H ) :   0.8540 B(  0-O ,  2-H ) :   0.8453 B(  3-O ,  4-H ) :   0.8406
B(  3-O ,  5-H ) :   0.8219 B(  6-O ,  7-H ) :   0.8410 B(  6-O ,  8-H ) :   0.7978
B(  9-O , 10-H ) :   0.8617 B(  9-O , 11-H ) :   0.7780

MP2 TOTAL ENERGY:     -305.269913169 Eh
FINAL SINGLE POINT ENERGY      -305.269913168677

DIPOLE MOMENT
-------------
                                X             Y             Z
Electronic contribution:      0.11028      -0.41133      -0.00587
Nuclear contribution   :      0.14599       0.11349       0.05351
                        -----------------------------------------
Total Dipole Moment    :      0.25627      -0.29784       0.04764
                        -----------------------------------------
Magnitude (a.u.)       :      0.39579
Magnitude (Debye)      :      1.00602

Rotational constants in cm-1:     0.090494     0.029526     0.024592
Rotational constants in MHz :  2712.927580   885.172880   737.263102

                             ****ORCA TERMINATED NORMALLY****
TOTAL RUN TIME: 0 days 0 hours 0 minutes 14 seconds 610 msec
