                         Program Version 4.2.0 -  RELEASE  -
|  1> # 12mecn.remya.etal.2.mol4,5,8
|  2> ! MP2 def2-TZVP EnGrad TightSCF
|  3>
|  4> %pal
|  5>     nprocs 6
|  6> end
|  7>
|  8> %maxcore 8000
|  9>
| 10> %scf
| 11>     ConvForced true
| 12> end
| 13>
| 14> *xyz 0 1
| 15> C  -1.509690000  -0.693960000  -1.610140000
| 16> H  -1.327010000  -1.692700000  -2.017370000
| 17> H  -0.742170000  -0.000650000  -1.964400000
| 18> H  -2.491920000  -0.334310000  -1.929350000
| 19> C  -1.473570000  -0.748120000  -0.167200000
| 20> N  -1.447490000  -0.793720000   0.998938000
| 21> C  -1.955700000   2.515080000   1.698463000
| 22> H  -2.923830000   2.883163000   2.049269000
| 23> H  -1.154850000   3.171830000   2.050990000
| 24> H  -1.790380000   1.506115000   2.087896000
| 25> C  -1.948230000   2.482156000   0.253672000
| 26> N  -1.937550000   2.462523000  -0.913150000
| 27> C   1.912641000  -2.468050000  -1.750510000
| 28> H   2.876947000  -2.793500000  -2.151200000
| 29> H   1.688016000  -1.463720000  -2.122170000
| 30> H   1.123460000  -3.154780000  -2.069590000
| 31> C   1.977850000  -2.444240000  -0.306900000
| 32> N   2.036566000  -2.426130000   0.858249000
| 33> *
| 34>
| 35>                          ****END OF INPUT****

CARTESIAN COORDINATES (ANGSTROEM)
---------------------------------
  C     -1.509690   -0.693960   -1.610140
  H     -1.327010   -1.692700   -2.017370
  H     -0.742170   -0.000650   -1.964400
  H     -2.491920   -0.334310   -1.929350
  C     -1.473570   -0.748120   -0.167200
  N     -1.447490   -0.793720    0.998938
  C     -1.955700    2.515080    1.698463
  H     -2.923830    2.883163    2.049269
  H     -1.154850    3.171830    2.050990
  H     -1.790380    1.506115    2.087896
  C     -1.948230    2.482156    0.253672
  N     -1.937550    2.462523   -0.913150
  C      1.912641   -2.468050   -1.750510
  H      2.876947   -2.793500   -2.151200
  H      1.688016   -1.463720   -2.122170
  H      1.123460   -3.154780   -2.069590
  C      1.977850   -2.444240   -0.306900
  N      2.036566   -2.426130    0.858249

 Total Charge           Charge          ....    0
 Multiplicity           Mult            ....    1
 Number of Electrons    NEL             ....   66
 Basis Dimension        Dim             ....  333

ORBITAL ENERGIES
----------------

  NO   OCC          E(Eh)            E(eV)
   0   2.0000     -15.571680      -423.7270
   1   2.0000     -15.571412      -423.7197
   2   2.0000     -15.569905      -423.6787
   3   2.0000     -11.288298      -307.1702
   4   2.0000     -11.283228      -307.0322
   5   2.0000     -11.279989      -306.9441
   6   2.0000     -11.278367      -306.9000
   7   2.0000     -11.277159      -306.8671
   8   2.0000     -11.271759      -306.7202
   9   2.0000      -1.217153       -33.1204
  10   2.0000      -1.212640       -32.9976
  11   2.0000      -1.211745       -32.9732
  12   2.0000      -1.046252       -28.4700
  13   2.0000      -1.039340       -28.2819
  14   2.0000      -1.034436       -28.1484
  15   2.0000      -0.701609       -19.0918
  16   2.0000      -0.695568       -18.9274
  17   2.0000      -0.691030       -18.8039
  18   2.0000      -0.639604       -17.4045
  19   2.0000      -0.635646       -17.2968
  20   2.0000      -0.630731       -17.1631
  21   2.0000      -0.624150       -16.9840
  22   2.0000      -0.621765       -16.9191
  23   2.0000      -0.616601       -16.7786
  24   2.0000      -0.558782       -15.2052
  25   2.0000      -0.554747       -15.0954
  26   2.0000      -0.552618       -15.0375
  27   2.0000      -0.463395       -12.6096
  28   2.0000      -0.460267       -12.5245
  29   2.0000      -0.458576       -12.4785
  30   2.0000      -0.455904       -12.4058
  31   2.0000      -0.452868       -12.3232
  32   2.0000      -0.448101       -12.1934
  33   0.0000       0.102490         2.7889
  34   0.0000       0.133726         3.6389
  35   0.0000       0.149551         4.0695
  36   0.0000       0.157169         4.2768
  37   0.0000       0.161673         4.3994

MULLIKEN ATOMIC CHARGES
-----------------------
   0 C :   -0.268964
   1 H :    0.163060
   2 H :    0.176902
   3 H :    0.185616
   4 C :   -0.123433
   5 N :   -0.133000
   6 C :   -0.285512
   7 H :    0.166109
   8 H :    0.167407
   9 H :    0.207617
  10 C :   -0.113911
  11 N :   -0.141782
  12 C :   -0.287395
  13 H :    0.181756
  14 H :    0.167083
  15 H :    0.168523
  16 C :   -0.151404
  17 N :   -0.078671
Sum of atomic charges:   -0.0000000

LOEWDIN ATOMIC CHARGES
----------------------
   0 C :   -0.288475
   1 H :    0.145837
   2 H :    0.154230
   3 H :    0.157971
   4 C :   -0.215467
   5 N :    0.042507
   6 C :   -0.280967
   7 H :    0.151899
   8 H :    0.152708
   9 H :    0.158220
  10 C :   -0.209522
  11 N :    0.031320
  12 C :   -0.287414
  13 H :    0.153585
  14 H :    0.149861
  15 H :    0.150273
  16 C :   -0.223342
  17 N :    0.056775

  Mayer bond orders larger than 0.100000
B(  0-C ,  1-H ) :   0.9138 B(  0-C ,  2-H ) :   0.9191 B(  0-C ,  3-H ) :   0.9066
B(  0-C ,  4-C ) :   0.9040 B(  4-C ,  5-N ) :   2.7615 B(  6-C ,  7-H ) :   0.9154
B(  6-C ,  8-H ) :   0.9149 B(  6-C ,  9-H ) :   0.9023 B(  6-C , 10-C ) :   0.8986
B( 10-C , 11-N ) :   2.7946 B( 12-C , 13-H ) :   0.9112 B( 12-C , 14-H ) :   0.9188
B( 12-C , 15-H ) :   0.9223 B( 12-C , 16-C ) :   0.8968 B( 16-C , 17-N ) :   2.8298

MP2 TOTAL ENERGY:     -397.458186893 Eh
FINAL SINGLE POINT ENERGY      -397.458186893250

DIPOLE MOMENT
-------------
                                X             Y             Z
Electronic contribution:      0.24217      -0.14559       3.25417
Nuclear contribution   :     -0.35774       0.21190      -4.62074
                        -----------------------------------------
Total Dipole Moment    :     -0.11556       0.06631      -1.36657
                        -----------------------------------------
Magnitude (a.u.)       :      1.37305
Magnitude (Debye)      :      3.49002

Rotational constants in cm-1:     0.070879     0.018405     0.016785
Rotational constants in MHz :  2124.905155   551.775386   503.204198

                             ****ORCA TERMINATED NORMALLY****
TOTAL RUN TIME: 0 days 0 hours 3 minutes 49 seconds 573 msec
