                         Program Version 4.2.0 -  RELEASE  -
|  1> # 12meoh.boyd.etal.mol2,7
|  2> ! MP2 def2-TZVP EnGrad TightSCF
|  3>
|  4> %pal
|  5>     nprocs 6
|  6> end
|  7>
|  8> %maxcore 8000
|  9>
| 10> %scf
| 11>     ConvForced true
| 12> end
| 13>
| 14> *xyz 0 1
| 15> O  -3.839777402   2.233595098   0.660436763
| 16> H  -2.958345897   1.907036203   0.973588449
| 17> C  -3.600368059   3.168790682  -0.390480452
| 18> H  -4.551709193   3.344148967  -0.901254863
| 19> H  -2.868237594   2.789240199  -1.113617525
| 20> H  -3.243594915   4.128998607   0.009549480
| 21> O   4.310535586  -1.588322800   0.656128299
| 22> H   3.804372199  -1.630404735  -0.196849819
| 23> C   4.312298137  -2.894980854   1.222112691
| 24> H   4.713177833  -2.819907076   2.237066773
| 25> H   4.957796734  -3.574699304   0.648211180
| 26> H   3.302735989  -3.324433205   1.269756773
| 27> *
| 28>
| 29>                          ****END OF INPUT****

CARTESIAN COORDINATES (ANGSTROEM)
---------------------------------
  O     -3.839777    2.233595    0.660437
  H     -2.958346    1.907036    0.973588
  C     -3.600368    3.168791   -0.390480
  H     -4.551709    3.344149   -0.901255
  H     -2.868238    2.789240   -1.113618
  H     -3.243595    4.128999    0.009549
  O      4.310536   -1.588323    0.656128
  H      3.804372   -1.630405   -0.196850
  C      4.312298   -2.894981    1.222113
  H      4.713178   -2.819907    2.237067
  H      4.957797   -3.574699    0.648211
  H      3.302736   -3.324433    1.269757

 Total Charge           Charge          ....    0
 Multiplicity           Mult            ....    1
 Number of Electrons    NEL             ....   36
 Basis Dimension        Dim             ....  172

ORBITAL ENERGIES
----------------

  NO   OCC          E(Eh)            E(eV)
   0   2.0000     -20.559248      -559.4456
   1   2.0000     -20.556885      -559.3813
   2   2.0000     -11.273339      -306.7631
   3   2.0000     -11.271942      -306.7251
   4   2.0000      -1.348928       -36.7062
   5   2.0000      -1.346360       -36.6363
   6   2.0000      -0.921282       -25.0694
   7   2.0000      -0.919744       -25.0275
   8   2.0000      -0.683682       -18.6039
   9   2.0000      -0.681648       -18.5486
  10   2.0000      -0.618734       -16.8366
  11   2.0000      -0.616786       -16.7836
  12   2.0000      -0.592589       -16.1252
  13   2.0000      -0.589943       -16.0532
  14   2.0000      -0.502707       -13.6794
  15   2.0000      -0.501680       -13.6514
  16   2.0000      -0.450903       -12.2697
  17   2.0000      -0.449212       -12.2237
  18   0.0000       0.132901         3.6164
  19   0.0000       0.134981         3.6730
  20   0.0000       0.174435         4.7466
  21   0.0000       0.176277         4.7967
  22   0.0000       0.226543         6.1645

MULLIKEN ATOMIC CHARGES
-----------------------
   0 O :   -0.496160
   1 H :    0.321346
   2 C :   -0.175131
   3 H :    0.129143
   4 H :    0.110351
   5 H :    0.110449
   6 O :   -0.496329
   7 H :    0.321056
   8 C :   -0.174432
   9 H :    0.129712
  10 H :    0.109862
  11 H :    0.110130
Sum of atomic charges:    0.0000000

LOEWDIN ATOMIC CHARGES
----------------------
   0 O :   -0.110813
   1 H :    0.188178
   2 C :   -0.378700
   3 H :    0.109758
   4 H :    0.095634
   5 H :    0.095943
   6 O :   -0.109436
   7 H :    0.189268
   8 C :   -0.381254
   9 H :    0.110212
  10 H :    0.095587
  11 H :    0.095622

  Mayer bond orders larger than 0.100000
B(  0-O ,  1-H ) :   0.8439 B(  0-O ,  2-C ) :   0.9268 B(  2-C ,  3-H ) :   0.9381
B(  2-C ,  4-H ) :   0.9411 B(  2-C ,  5-H ) :   0.9377 B(  6-O ,  7-H ) :   0.8433
B(  6-O ,  8-C ) :   0.9260 B(  8-C ,  9-H ) :   0.9377 B(  8-C , 10-H ) :   0.9383
B(  8-C , 11-H ) :   0.9401

MP2 TOTAL ENERGY:     -231.013220812 Eh
FINAL SINGLE POINT ENERGY      -231.013220811877

DIPOLE MOMENT
-------------
                                X             Y             Z
Electronic contribution:     -0.37552       0.53374       0.70148
Nuclear contribution   :      0.70296      -0.91891      -1.23299
                        -----------------------------------------
Total Dipole Moment    :      0.32744      -0.38516      -0.53151
                        -----------------------------------------
Magnitude (a.u.)       :      0.73353
Magnitude (Debye)      :      1.86449

Rotational constants in cm-1:     0.478402     0.011739     0.011534
Rotational constants in MHz : 14342.120078   351.918329   345.795028

                             ****ORCA TERMINATED NORMALLY****
TOTAL RUN TIME: 0 days 0 hours 0 minutes 15 seconds 132 msec
