                         Program Version 4.2.0 -  RELEASE  -
|  1> # 12meoh.boyd.etal.mol1,7,11
|  2> ! MP2 def2-TZVP EnGrad TightSCF
|  3>
|  4> %pal
|  5>     nprocs 6
|  6> end
|  7>
|  8> %maxcore 8000
|  9>
| 10> %scf
| 11>     ConvForced true
| 12> end
| 13>
| 14> *xyz 0 1
| 15> O   0.666045193  -2.600503172   0.138317521
| 16> H  -0.227115049  -2.712051982  -0.281868004
| 17> C   0.490021232  -1.851247678   1.341189459
| 18> H   1.466500502  -1.466176022   1.645844415
| 19> H   0.097564527  -2.488364683   2.146902740
| 20> H  -0.187588112  -1.000787499   1.200739571
| 21> O   4.310535586  -1.588322800   0.656128299
| 22> H   3.804372199  -1.630404735  -0.196849819
| 23> C   4.312298137  -2.894980854   1.222112691
| 24> H   4.713177833  -2.819907076   2.237066773
| 25> H   4.957796734  -3.574699304   0.648211180
| 26> H   3.302735989  -3.324433205   1.269756773
| 27> O   3.252955559   0.588596242   1.858934315
| 28> H   3.621209177  -0.251605199   1.476063364
| 29> C   4.040824528   0.944288422   2.989639460
| 30> H   3.670521436   1.902573549   3.363847391
| 31> H   5.103749934   1.055868619   2.734277559
| 32> H   3.948540682   0.200279590   3.792908518
| 33> *
| 34>
| 35>                          ****END OF INPUT****

CARTESIAN COORDINATES (ANGSTROEM)
---------------------------------
  O      0.666045   -2.600503    0.138318
  H     -0.227115   -2.712052   -0.281868
  C      0.490021   -1.851248    1.341189
  H      1.466501   -1.466176    1.645844
  H      0.097565   -2.488365    2.146903
  H     -0.187588   -1.000787    1.200740
  O      4.310536   -1.588323    0.656128
  H      3.804372   -1.630405   -0.196850
  C      4.312298   -2.894981    1.222113
  H      4.713178   -2.819907    2.237067
  H      4.957797   -3.574699    0.648211
  H      3.302736   -3.324433    1.269757
  O      3.252956    0.588596    1.858934
  H      3.621209   -0.251605    1.476063
  C      4.040825    0.944288    2.989639
  H      3.670521    1.902574    3.363847
  H      5.103750    1.055869    2.734278
  H      3.948541    0.200280    3.792909

 Total Charge           Charge          ....    0
 Multiplicity           Mult            ....    1
 Number of Electrons    NEL             ....   54
 Basis Dimension        Dim             ....  258

ORBITAL ENERGIES
----------------

  NO   OCC          E(Eh)            E(eV)
   0   2.0000     -20.581443      -560.0495
   1   2.0000     -20.561562      -559.5086
   2   2.0000     -20.516255      -558.2757
   3   2.0000     -11.281996      -306.9987
   4   2.0000     -11.267668      -306.6088
   5   2.0000     -11.250105      -306.1309
   6   2.0000      -1.375103       -37.4185
   7   2.0000      -1.349417       -36.7195
   8   2.0000      -1.312745       -35.7216
   9   2.0000      -0.934734       -25.4354
  10   2.0000      -0.918066       -24.9818
  11   2.0000      -0.896571       -24.3969
  12   2.0000      -0.706295       -19.2193
  13   2.0000      -0.684518       -18.6267
  14   2.0000      -0.671208       -18.2645
  15   2.0000      -0.628758       -17.1094
  16   2.0000      -0.616491       -16.7756
  17   2.0000      -0.604690       -16.4545
  18   2.0000      -0.593611       -16.1530
  19   2.0000      -0.588163       -16.0047
  20   2.0000      -0.563008       -15.3202
  21   2.0000      -0.521763       -14.1979
  22   2.0000      -0.501929       -13.6582
  23   2.0000      -0.482351       -13.1254
  24   2.0000      -0.454931       -12.3793
  25   2.0000      -0.451450       -12.2846
  26   2.0000      -0.418171       -11.3790
  27   0.0000       0.123483         3.3601
  28   0.0000       0.146696         3.9918
  29   0.0000       0.160195         4.3591
  30   0.0000       0.179088         4.8732
  31   0.0000       0.185334         5.0432

MULLIKEN ATOMIC CHARGES
-----------------------
   0 O :   -0.515478
   1 H :    0.324941
   2 C :   -0.176447
   3 H :    0.123350
   4 H :    0.107127
   5 H :    0.121441
   6 O :   -0.523410
   7 H :    0.352225
   8 C :   -0.194977
   9 H :    0.135050
  10 H :    0.125904
  11 H :    0.145735
  12 O :   -0.525769
  13 H :    0.349570
  14 C :   -0.170069
  15 H :    0.120773
  16 H :    0.107512
  17 H :    0.092524
Sum of atomic charges:    0.0000000

LOEWDIN ATOMIC CHARGES
----------------------
   0 O :   -0.120370
   1 H :    0.190810
   2 C :   -0.380709
   3 H :    0.107079
   4 H :    0.095082
   5 H :    0.100886
   6 O :   -0.075001
   7 H :    0.202668
   8 C :   -0.374074
   9 H :    0.111928
  10 H :    0.104117
  11 H :    0.105203
  12 O :   -0.121165
  13 H :    0.156330
  14 C :   -0.392854
  15 H :    0.105614
  16 H :    0.094710
  17 H :    0.089747

  Mayer bond orders larger than 0.100000
B(  0-O ,  1-H ) :   0.8416 B(  0-O ,  2-C ) :   0.9072 B(  2-C ,  3-H ) :   0.9290
B(  2-C ,  4-H ) :   0.9390 B(  2-C ,  5-H ) :   0.9430 B(  6-O ,  7-H ) :   0.8226
B(  6-O ,  8-C ) :   0.8683 B(  8-C ,  9-H ) :   0.9393 B(  8-C , 10-H ) :   0.9380
B(  8-C , 11-H ) :   0.9335 B( 12-O , 13-H ) :   0.7814 B( 12-O , 14-C ) :   0.9471
B( 14-C , 15-H ) :   0.9416 B( 14-C , 16-H ) :   0.9411 B( 14-C , 17-H ) :   0.9356

MP2 TOTAL ENERGY:     -346.535427462 Eh
FINAL SINGLE POINT ENERGY      -346.535427462271

DIPOLE MOMENT
-------------
                                X             Y             Z
Electronic contribution:     -0.57440       0.15589      -3.68068
Nuclear contribution   :      0.24269      -1.11575       3.62902
                        -----------------------------------------
Total Dipole Moment    :     -0.33171      -0.95987      -0.05167
                        -----------------------------------------
Magnitude (a.u.)       :      1.01688
Magnitude (Debye)      :      2.58471

Rotational constants in cm-1:     0.084624     0.042572     0.031026
Rotational constants in MHz :  2536.969739  1276.286765   930.136851

                             ****ORCA TERMINATED NORMALLY****
TOTAL RUN TIME: 0 days 0 hours 1 minutes 33 seconds 296 msec
