                         Program Version 4.2.0 -  RELEASE  -
|  1> ! MP2 def2-TZVP EnGrad TightSCF FrozenCore
|  2>
|  3> %pal
|  4>     nprocs 12
|  5> end
|  6>
|  7> %maxcore 8000
|  8>
|  9> %scf
| 10>     ConvForced true
| 11> end
| 12>
| 13> *xyz 0 1
| 14> O    -0.7538752755    -1.5598434751    -1.5886472073
| 15> H     0.210043591     -1.6195827664    -1.3891927376
| 16> C    -0.9296917316    -1.5753496897    -3.000501992
| 17> H    -1.997840645     -1.4522134258    -3.1985572227
| 18> H    -0.6061160294    -2.5313697158    -3.4338572739
| 19> H    -0.3832615956    -0.762430892     -3.5005780114
| 20> O    -1.2561559908     1.6751232892     2.4250273706
| 21> H    -1.0759472808     1.1280475085     1.636113746
| 22> C    -0.2417163619     1.4095764571     3.3701613684
| 23> H    -0.4190030945     2.0578905614     4.2344817263
| 24> H     0.7701339471     1.6277195486     2.988488601
| 25> H    -0.2502673663     0.3657522973     3.7270034555
| 26> O    -0.4583122144     0.6804339678    -0.0850266584
| 27> H    -0.8346235414    -0.0529388676    -0.6346051141
| 28> C    -0.6444044713     1.9232635807    -0.7689264932
| 29> H    -0.3975524474     2.715816225     -0.0600492349
| 30> H    -1.6875549633     2.0516411052    -1.0825946678
| 31> H     0.0085446307     2.0012478295    -1.6483201508
| 32> O     1.7398558636    -0.9238113046    -0.6715339311
| 33> H     1.2055508985    -0.1870642591    -0.3010649384
| 34> C     2.4018377676    -1.5883887439     0.3999128452
| 35> H     2.9500503172    -2.4306243366    -0.0302365367
| 36> H     1.6980089984    -1.9754690749     1.1503984689
| 37> H     3.1215843007    -0.9262511807     0.9001389289
| 38> *
| 39>
| 40>                          ****END OF INPUT****

CARTESIAN COORDINATES (ANGSTROEM)
---------------------------------
  O     -0.753875   -1.559843   -1.588647
  H      0.210044   -1.619583   -1.389193
  C     -0.929692   -1.575350   -3.000502
  H     -1.997841   -1.452213   -3.198557
  H     -0.606116   -2.531370   -3.433857
  H     -0.383262   -0.762431   -3.500578
  O     -1.256156    1.675123    2.425027
  H     -1.075947    1.128048    1.636114
  C     -0.241716    1.409576    3.370161
  H     -0.419003    2.057891    4.234482
  H      0.770134    1.627720    2.988489
  H     -0.250267    0.365752    3.727003
  O     -0.458312    0.680434   -0.085027
  H     -0.834624   -0.052939   -0.634605
  C     -0.644404    1.923264   -0.768926
  H     -0.397552    2.715816   -0.060049
  H     -1.687555    2.051641   -1.082595
  H      0.008545    2.001248   -1.648320
  O      1.739856   -0.923811   -0.671534
  H      1.205551   -0.187064   -0.301065
  C      2.401838   -1.588389    0.399913
  H      2.950050   -2.430624   -0.030237
  H      1.698009   -1.975469    1.150398
  H      3.121584   -0.926251    0.900139

 Total Charge           Charge          ....    0
 Multiplicity           Mult            ....    1
 Number of Electrons    NEL             ....   72
 Basis Dimension        Dim             ....  344

ORBITAL ENERGIES
----------------

  NO   OCC          E(Eh)            E(eV)
   0   2.0000     -20.569439      -559.7229
   1   2.0000     -20.564329      -559.5839
   2   2.0000     -20.561985      -559.5201
   3   2.0000     -20.527141      -558.5719
   4   2.0000     -11.279396      -306.9280
   5   2.0000     -11.279106      -306.9201
   6   2.0000     -11.278899      -306.9145
   7   2.0000     -11.256213      -306.2971
   8   2.0000      -1.379364       -37.5344
   9   2.0000      -1.359562       -36.9956
  10   2.0000      -1.355034       -36.8723
  11   2.0000      -1.329241       -36.1705
  12   2.0000      -0.939885       -25.5756
  13   2.0000      -0.928567       -25.2676
  14   2.0000      -0.926087       -25.2001
  15   2.0000      -0.903206       -24.5775
  16   2.0000      -0.715297       -19.4642
  17   2.0000      -0.703248       -19.1364
  18   2.0000      -0.702045       -19.1036
  19   2.0000      -0.670562       -18.2469
  20   2.0000      -0.629089       -17.1184
  21   2.0000      -0.626067       -17.0362
  22   2.0000      -0.621761       -16.9190
  23   2.0000      -0.607383       -16.5277
  24   2.0000      -0.600891       -16.3511
  25   2.0000      -0.597909       -16.2699
  26   2.0000      -0.595286       -16.1986
  27   2.0000      -0.572086       -15.5672
  28   2.0000      -0.524235       -14.2652
  29   2.0000      -0.519573       -14.1383
  30   2.0000      -0.505057       -13.7433
  31   2.0000      -0.482127       -13.1194
  32   2.0000      -0.464813       -12.6482
  33   2.0000      -0.456722       -12.4280
  34   2.0000      -0.452696       -12.3185
  35   2.0000      -0.426159       -11.5964
  36   0.0000       0.120697         3.2843
  37   0.0000       0.135846         3.6966
  38   0.0000       0.164748         4.4830
  39   0.0000       0.181864         4.9488
  40   0.0000       0.183538         4.9943

MULLIKEN ATOMIC CHARGES
-----------------------
   0 O :   -0.550716
   1 H :    0.361045
   2 C :   -0.175382
   3 H :    0.131621
   4 H :    0.124260
   5 H :    0.116960
   6 O :   -0.510920
   7 H :    0.347745
   8 C :   -0.170593
   9 H :    0.122651
  10 H :    0.094522
  11 H :    0.102463
  12 O :   -0.597091
  13 H :    0.377349
  14 C :   -0.193540
  15 H :    0.153726
  16 H :    0.133285
  17 H :    0.123258
  18 O :   -0.550374
  19 H :    0.359467
  20 C :   -0.177216
  21 H :    0.131337
  22 H :    0.123123
  23 H :    0.123020
Sum of atomic charges:   -0.0000000

LOEWDIN ATOMIC CHARGES
----------------------
   0 O :   -0.089275
   1 H :    0.168875
   2 C :   -0.381406
   3 H :    0.110267
   4 H :    0.103409
   5 H :    0.098631
   6 O :   -0.093940
   7 H :    0.164052
   8 C :   -0.400304
   9 H :    0.107176
  10 H :    0.091215
  11 H :    0.093287
  12 O :   -0.098192
  13 H :    0.169350
  14 C :   -0.377191
  15 H :    0.114810
  16 H :    0.106397
  17 H :    0.101059
  18 O :   -0.092002
  19 H :    0.169105
  20 C :   -0.379121
  21 H :    0.110394
  22 H :    0.100663
  23 H :    0.102740

  Mayer bond orders larger than 0.100000
B(  0-O ,  1-H ) :   0.7731 B(  0-O ,  2-C ) :   0.8879 B(  2-C ,  3-H ) :   0.9408
B(  2-C ,  4-H ) :   0.9409 B(  2-C ,  5-H ) :   0.9352 B(  6-O ,  7-H ) :   0.8088
B(  6-O ,  8-C ) :   0.9474 B(  8-C ,  9-H ) :   0.9412 B(  8-C , 10-H ) :   0.9334
B(  8-C , 11-H ) :   0.9421 B( 12-O , 13-H ) :   0.7507 B( 12-O , 14-C ) :   0.8489
B( 14-C , 15-H ) :   0.9384 B( 14-C , 16-H ) :   0.9417 B( 14-C , 17-H ) :   0.9315
B( 18-O , 19-H ) :   0.7851 B( 18-O , 20-C ) :   0.8872 B( 20-C , 21-H ) :   0.9410
B( 20-C , 22-H ) :   0.9364 B( 20-C , 23-H ) :   0.9391

MP2 TOTAL ENERGY:     -462.070279697 Eh
FINAL SINGLE POINT ENERGY      -462.070279697334

DIPOLE MOMENT
-------------
                                X             Y             Z
Electronic contribution:     -1.72562      -0.35202      -0.13602
Nuclear contribution   :      2.42685       0.00860      -0.67646
                        -----------------------------------------
Total Dipole Moment    :      0.70123      -0.34342      -0.81248
                        -----------------------------------------
Magnitude (a.u.)       :      1.12684
Magnitude (Debye)      :      2.86421

Rotational constants in cm-1:     0.051208     0.023987     0.018692
Rotational constants in MHz :  1535.176223   719.119556   560.373921

                             ****ORCA TERMINATED NORMALLY****
TOTAL RUN TIME: 0 days 0 hours 4 minutes 15 seconds 784 msec
