                         Program Version 4.2.0 -  RELEASE  -
|  1> # 12h2o.su.etal.mol0,1,2,3,5,9,11
|  2> ! MP2 def2-TZVP EnGrad TightSCF
|  3>
|  4> %pal
|  5>     nprocs 6
|  6> end
|  7>
|  8> %maxcore 8000
|  9>
| 10> %scf
| 11>     ConvForced true
| 12> end
| 13>
| 14> *xyz 0 1
| 15> O   1.794470000   0.923410000   2.768350000
| 16> H   2.338250000   1.359750000   3.430940000
| 17> H   0.879480000   1.303000000   2.865760000
| 18> O  -1.794470000  -0.923410000   2.768350000
| 19> H  -2.338250000  -1.359750000   3.430940000
| 20> H  -0.879480000  -1.303000000   2.865760000
| 21> O   0.923410000  -1.794470000  -2.768350000
| 22> H   1.359750000  -2.338250000  -3.430940000
| 23> H   1.303000000  -0.879480000  -2.865760000
| 24> O  -1.752130000  -0.741530000  -2.896280000
| 25> H  -2.036450000  -0.920500000  -1.984040000
| 26> H  -0.921210000  -1.242140000  -2.984230000
| 27> O   0.885520000  -1.737840000   0.052730000
| 28> H   1.284090000  -0.839590000   0.017130000
| 29> H   1.032320000  -2.090180000  -0.841890000
| 30> O   0.741530000  -1.752130000   2.896280000
| 31> H   0.920500000  -2.036450000   1.984040000
| 32> H   1.242140000  -0.921210000   2.984230000
| 33> O  -0.741530000   1.752130000   2.896280000
| 34> H  -0.920500000   2.036450000   1.984040000
| 35> H  -1.242140000   0.921210000   2.984230000
| 36> *
| 37>
| 38>                          ****END OF INPUT****

CARTESIAN COORDINATES (ANGSTROEM)
---------------------------------
  O      1.794470    0.923410    2.768350
  H      2.338250    1.359750    3.430940
  H      0.879480    1.303000    2.865760
  O     -1.794470   -0.923410    2.768350
  H     -2.338250   -1.359750    3.430940
  H     -0.879480   -1.303000    2.865760
  O      0.923410   -1.794470   -2.768350
  H      1.359750   -2.338250   -3.430940
  H      1.303000   -0.879480   -2.865760
  O     -1.752130   -0.741530   -2.896280
  H     -2.036450   -0.920500   -1.984040
  H     -0.921210   -1.242140   -2.984230
  O      0.885520   -1.737840    0.052730
  H      1.284090   -0.839590    0.017130
  H      1.032320   -2.090180   -0.841890
  O      0.741530   -1.752130    2.896280
  H      0.920500   -2.036450    1.984040
  H      1.242140   -0.921210    2.984230
  O     -0.741530    1.752130    2.896280
  H     -0.920500    2.036450    1.984040
  H     -1.242140    0.921210    2.984230

 Total Charge           Charge          ....    0
 Multiplicity           Mult            ....    1
 Number of Electrons    NEL             ....   70
 Basis Dimension        Dim             ....  301

ORBITAL ENERGIES
----------------

  NO   OCC          E(Eh)            E(eV)
   0   2.0000     -20.624097      -561.2102
   1   2.0000     -20.566710      -559.6486
   2   2.0000     -20.564950      -559.6007
   3   2.0000     -20.545648      -559.0755
   4   2.0000     -20.537197      -558.8456
   5   2.0000     -20.536473      -558.8258
   6   2.0000     -20.534093      -558.7611
   7   2.0000      -1.404252       -38.2116
   8   2.0000      -1.357601       -36.9422
   9   2.0000      -1.348926       -36.7061
  10   2.0000      -1.333260       -36.2799
  11   2.0000      -1.326676       -36.1007
  12   2.0000      -1.319779       -35.9130
  13   2.0000      -1.310738       -35.6670
  14   2.0000      -0.769880       -20.9495
  15   2.0000      -0.719491       -19.5783
  16   2.0000      -0.716613       -19.5000
  17   2.0000      -0.712534       -19.3890
  18   2.0000      -0.696349       -18.9486
  19   2.0000      -0.692116       -18.8334
  20   2.0000      -0.690778       -18.7970
  21   2.0000      -0.641074       -17.4445
  22   2.0000      -0.614612       -16.7245
  23   2.0000      -0.599609       -16.3162
  24   2.0000      -0.579650       -15.7731
  25   2.0000      -0.573466       -15.6048
  26   2.0000      -0.564060       -15.3489
  27   2.0000      -0.546344       -14.8668
  28   2.0000      -0.539216       -14.6728
  29   2.0000      -0.512835       -13.9550
  30   2.0000      -0.505652       -13.7595
  31   2.0000      -0.494853       -13.4656
  32   2.0000      -0.484855       -13.1936
  33   2.0000      -0.484794       -13.1919
  34   2.0000      -0.481527       -13.1030
  35   0.0000       0.084291         2.2937
  36   0.0000       0.123010         3.3473
  37   0.0000       0.154663         4.2086
  38   0.0000       0.161440         4.3930
  39   0.0000       0.171892         4.6774

MULLIKEN ATOMIC CHARGES
-----------------------
   0 O :   -0.746696
   1 H :    0.340789
   2 H :    0.378750
   3 O :   -0.746158
   4 H :    0.336656
   5 H :    0.384424
   6 O :   -0.712929
   7 H :    0.367854
   8 H :    0.369106
   9 O :   -0.706465
  10 H :    0.340093
  11 H :    0.352380
  12 O :   -0.710845
  13 H :    0.338917
  14 H :    0.372042
  15 O :   -0.727407
  16 H :    0.383934
  17 H :    0.364087
  18 O :   -0.708829
  19 H :    0.350821
  20 H :    0.379476
Sum of atomic charges:   -0.0000000

LOEWDIN ATOMIC CHARGES
----------------------
   0 O :   -0.344532
   1 H :    0.155383
   2 H :    0.144772
   3 O :   -0.342996
   4 H :    0.153439
   5 H :    0.145916
   6 O :   -0.286326
   7 H :    0.169646
   8 H :    0.191496
   9 O :   -0.347136
  10 H :    0.164736
  11 H :    0.144247
  12 O :   -0.323849
  13 H :    0.170416
  14 H :    0.151649
  15 O :   -0.290940
  16 H :    0.156183
  17 H :    0.148102
  18 O :   -0.284992
  19 H :    0.169824
  20 H :    0.154961

  Mayer bond orders larger than 0.100000
B(  0-O ,  1-H ) :   0.8488 B(  0-O ,  2-H ) :   0.7485 B(  2-H , 18-O ) :   0.1106
B(  3-O ,  4-H ) :   0.8506 B(  3-O ,  5-H ) :   0.7395 B(  5-H , 15-O ) :   0.1173
B(  6-O ,  7-H ) :   0.8299 B(  6-O ,  8-H ) :   0.8220 B(  9-O , 10-H ) :   0.8509
B(  9-O , 11-H ) :   0.8297 B( 12-O , 13-H ) :   0.8432 B( 12-O , 14-H ) :   0.8128
B( 15-O , 16-H ) :   0.8043 B( 15-O , 17-H ) :   0.7969 B( 18-O , 19-H ) :   0.8420
B( 18-O , 20-H ) :   0.7770

MP2 TOTAL ENERGY:     -534.258689078 Eh
FINAL SINGLE POINT ENERGY      -534.258689077655

DIPOLE MOMENT
-------------
                                X             Y             Z
Electronic contribution:     -0.09835      -0.18388      -0.21401
Nuclear contribution   :      1.58806       0.19772      -0.82779
                        -----------------------------------------
Total Dipole Moment    :      1.48971       0.01384      -1.04180
                        -----------------------------------------
Magnitude (a.u.)       :      1.81790
Magnitude (Debye)      :      4.62075

Rotational constants in cm-1:     0.044036     0.016913     0.015572
Rotational constants in MHz :  1320.156066   507.034214   466.824187

                             ****ORCA TERMINATED NORMALLY****
TOTAL RUN TIME: 0 days 0 hours 1 minutes 38 seconds 220 msec
