                         Program Version 4.2.0 -  RELEASE  -
|  1> # 12h2o.su.etal.mol3,7,8,10
|  2> ! MP2 def2-TZVP EnGrad TightSCF
|  3>
|  4> %pal
|  5>     nprocs 6
|  6> end
|  7>
|  8> %maxcore 8000
|  9>
| 10> %scf
| 11>     ConvForced true
| 12> end
| 13>
| 14> *xyz 0 1
| 15> O  -1.752130000  -0.741530000  -2.896280000
| 16> H  -2.036450000  -0.920500000  -1.984040000
| 17> H  -0.921210000  -1.242140000  -2.984230000
| 18> O  -1.737840000  -0.885520000  -0.052730000
| 19> H  -2.090180000  -1.032320000   0.841890000
| 20> H  -0.839590000  -1.284090000  -0.017130000
| 21> O   1.752130000   0.741530000  -2.896280000
| 22> H   2.036450000   0.920500000  -1.984040000
| 23> H   0.921210000   1.242140000  -2.984230000
| 24> O  -0.923410000   1.794470000  -2.768350000
| 25> H  -1.359750000   2.338250000  -3.430940000
| 26> H  -1.303000000   0.879480000  -2.865760000
| 27> *
| 28>
| 29>                          ****END OF INPUT****

CARTESIAN COORDINATES (ANGSTROEM)
---------------------------------
  O     -1.752130   -0.741530   -2.896280
  H     -2.036450   -0.920500   -1.984040
  H     -0.921210   -1.242140   -2.984230
  O     -1.737840   -0.885520   -0.052730
  H     -2.090180   -1.032320    0.841890
  H     -0.839590   -1.284090   -0.017130
  O      1.752130    0.741530   -2.896280
  H      2.036450    0.920500   -1.984040
  H      0.921210    1.242140   -2.984230
  O     -0.923410    1.794470   -2.768350
  H     -1.359750    2.338250   -3.430940
  H     -1.303000    0.879480   -2.865760

 Total Charge           Charge          ....    0
 Multiplicity           Mult            ....    1
 Number of Electrons    NEL             ....   40
 Basis Dimension        Dim             ....  172

ORBITAL ENERGIES
----------------

  NO   OCC          E(Eh)            E(eV)
   0   2.0000     -20.599850      -560.5504
   1   2.0000     -20.572612      -559.8092
   2   2.0000     -20.533505      -558.7451
   3   2.0000     -20.525887      -558.5378
   4   2.0000      -1.379215       -37.5303
   5   2.0000      -1.360348       -37.0170
   6   2.0000      -1.319104       -35.8947
   7   2.0000      -1.306014       -35.5384
   8   2.0000      -0.742569       -20.2063
   9   2.0000      -0.720284       -19.5999
  10   2.0000      -0.701821       -19.0975
  11   2.0000      -0.675619       -18.3845
  12   2.0000      -0.627300       -17.0697
  13   2.0000      -0.596564       -16.2333
  14   2.0000      -0.566805       -15.4235
  15   2.0000      -0.543897       -14.8002
  16   2.0000      -0.542286       -14.7563
  17   2.0000      -0.507381       -13.8065
  18   2.0000      -0.483002       -13.1432
  19   2.0000      -0.473281       -12.8786
  20   0.0000       0.094566         2.5733
  21   0.0000       0.143536         3.9058
  22   0.0000       0.168168         4.5761
  23   0.0000       0.178221         4.8496
  24   0.0000       0.197692         5.3795

MULLIKEN ATOMIC CHARGES
-----------------------
   0 O :   -0.699757
   1 H :    0.386106
   2 H :    0.350766
   3 O :   -0.692594
   4 H :    0.355718
   5 H :    0.348232
   6 O :   -0.716210
   7 H :    0.324885
   8 H :    0.362965
   9 O :   -0.738360
  10 H :    0.335403
  11 H :    0.382845
Sum of atomic charges:   -0.0000000

LOEWDIN ATOMIC CHARGES
----------------------
   0 O :   -0.275305
   1 H :    0.159751
   2 H :    0.170813
   3 O :   -0.316740
   4 H :    0.174241
   5 H :    0.176836
   6 O :   -0.353728
   7 H :    0.157694
   8 H :    0.147501
   9 O :   -0.339927
  10 H :    0.153015
  11 H :    0.145850

  Mayer bond orders larger than 0.100000
B(  0-O ,  1-H ) :   0.8021 B(  0-O ,  2-H ) :   0.8382 B(  3-O ,  4-H ) :   0.8397
B(  3-O ,  5-H ) :   0.8402 B(  6-O ,  7-H ) :   0.8604 B(  6-O ,  8-H ) :   0.8019
B(  9-O , 10-H ) :   0.8515 B(  9-O , 11-H ) :   0.7588

MP2 TOTAL ENERGY:     -305.280388703 Eh
FINAL SINGLE POINT ENERGY      -305.280388703130

DIPOLE MOMENT
-------------
                                X             Y             Z
Electronic contribution:     -0.30775      -0.11521      -0.04427
Nuclear contribution   :     -0.22475      -0.76293       1.51390
                        -----------------------------------------
Total Dipole Moment    :     -0.53250      -0.87814       1.46963
                        -----------------------------------------
Magnitude (a.u.)       :      1.79290
Magnitude (Debye)      :      4.55719

Rotational constants in cm-1:     0.140203     0.061783     0.054784
Rotational constants in MHz :  4203.172810  1852.219799  1642.393377

                             ****ORCA TERMINATED NORMALLY****
TOTAL RUN TIME: 0 days 0 hours 0 minutes 18 seconds 552 msec
