                         Program Version 4.2.0 -  RELEASE  -
|  1> # 12h2o.su.etal.mol4,8
|  2> ! MP2 def2-TZVP EnGrad TightSCF
|  3>
|  4> %pal
|  5>     nprocs 6
|  6> end
|  7>
|  8> %maxcore 8000
|  9>
| 10> %scf
| 11>     ConvForced true
| 12> end
| 13>
| 14> *xyz 0 1
| 15> O  -0.885520000   1.737840000   0.052730000
| 16> H  -1.032320000   2.090180000  -0.841890000
| 17> H  -1.284090000   0.839590000   0.017130000
| 18> O   1.752130000   0.741530000  -2.896280000
| 19> H   2.036450000   0.920500000  -1.984040000
| 20> H   0.921210000   1.242140000  -2.984230000
| 21> *
| 22>
| 23>                          ****END OF INPUT****

CARTESIAN COORDINATES (ANGSTROEM)
---------------------------------
  O     -0.885520    1.737840    0.052730
  H     -1.032320    2.090180   -0.841890
  H     -1.284090    0.839590    0.017130
  O      1.752130    0.741530   -2.896280
  H      2.036450    0.920500   -1.984040
  H      0.921210    1.242140   -2.984230

 Total Charge           Charge          ....    0
 Multiplicity           Mult            ....    1
 Number of Electrons    NEL             ....   20
 Basis Dimension        Dim             ....   86

ORBITAL ENERGIES
----------------

  NO   OCC          E(Eh)            E(eV)
   0   2.0000     -20.577002      -559.9287
   1   2.0000     -20.565031      -559.6030
   2   2.0000      -1.352809       -36.8118
   3   2.0000      -1.344163       -36.5765
   4   2.0000      -0.714895       -19.4533
   5   2.0000      -0.707021       -19.2390
   6   2.0000      -0.591743       -16.1021
   7   2.0000      -0.581584       -15.8257
   8   2.0000      -0.519463       -14.1353
   9   2.0000      -0.508930       -13.8487
  10   0.0000       0.092616         2.5202
  11   0.0000       0.156066         4.2468
  12   0.0000       0.176420         4.8006
  13   0.0000       0.223748         6.0885
  14   0.0000       0.503992        13.7143

MULLIKEN ATOMIC CHARGES
-----------------------
   0 O :   -0.671054
   1 H :    0.329904
   2 H :    0.342935
   3 O :   -0.671342
   4 H :    0.342970
   5 H :    0.326586
Sum of atomic charges:   -0.0000000

LOEWDIN ATOMIC CHARGES
----------------------
   0 O :   -0.334080
   1 H :    0.160977
   2 H :    0.174723
   3 O :   -0.329877
   4 H :    0.167187
   5 H :    0.161070

  Mayer bond orders larger than 0.100000
B(  0-O ,  1-H ) :   0.8559 B(  0-O ,  2-H ) :   0.8477 B(  3-O ,  4-H ) :   0.8492
B(  3-O ,  5-H ) :   0.8584

MP2 TOTAL ENERGY:     -152.626139526 Eh
FINAL SINGLE POINT ENERGY      -152.626139526484

DIPOLE MOMENT
-------------
                                X             Y             Z
Electronic contribution:      0.14807      -0.02356       0.04997
Nuclear contribution   :     -0.90891       0.11126      -0.08817
                        -----------------------------------------
Total Dipole Moment    :     -0.76085       0.08770      -0.03820
                        -----------------------------------------
Magnitude (a.u.)       :      0.76684
Magnitude (Debye)      :      1.94914

Rotational constants in cm-1:     5.781573     0.115879     0.115304
Rotational constants in MHz : 173327.192059  3473.962168  3456.740614

                             ****ORCA TERMINATED NORMALLY****
TOTAL RUN TIME: 0 days 0 hours 0 minutes 6 seconds 380 msec
