                         Program Version 4.2.0 -  RELEASE  -
|  1> # 12meoh.boyd.etal.mol0,1,4
|  2> ! MP2 def2-TZVP EnGrad TightSCF
|  3>
|  4> %pal
|  5>     nprocs 6
|  6> end
|  7>
|  8> %maxcore 8000
|  9>
| 10> %scf
| 11>     ConvForced true
| 12> end
| 13>
| 14> *xyz 0 1
| 15> O  -1.776108874  -2.741384797  -1.019308298
| 16> H  -2.520094035  -2.452295987  -0.420778302
| 17> C  -2.174025166  -3.952700964  -1.647004581
| 18> H  -1.359803895  -4.272673416  -2.304149236
| 19> H  -3.075973971  -3.808692420  -2.256751112
| 20> H  -2.370225393  -4.752784761  -0.918966137
| 21> O   0.666045193  -2.600503172   0.138317521
| 22> H  -0.227115049  -2.712051982  -0.281868004
| 23> C   0.490021232  -1.851247678   1.341189459
| 24> H   1.466500502  -1.466176022   1.645844415
| 25> H   0.097564527  -2.488364683   2.146902740
| 26> H  -0.187588112  -1.000787499   1.200739571
| 27> O  -1.358578914   1.232360421   1.189721000
| 28> H  -1.058250183   1.216459361   0.238591307
| 29> C  -0.389763452   1.957872567   1.943072362
| 30> H  -0.747220771   2.012806578   2.975200343
| 31> H  -0.260410585   2.982763209   1.565366540
| 32> H   0.585220638   1.453754179   1.934070793
| 33> *
| 34>
| 35>                          ****END OF INPUT****

CARTESIAN COORDINATES (ANGSTROEM)
---------------------------------
  O     -1.776109   -2.741385   -1.019308
  H     -2.520094   -2.452296   -0.420778
  C     -2.174025   -3.952701   -1.647005
  H     -1.359804   -4.272673   -2.304149
  H     -3.075974   -3.808692   -2.256751
  H     -2.370225   -4.752785   -0.918966
  O      0.666045   -2.600503    0.138318
  H     -0.227115   -2.712052   -0.281868
  C      0.490021   -1.851248    1.341189
  H      1.466501   -1.466176    1.645844
  H      0.097565   -2.488365    2.146903
  H     -0.187588   -1.000787    1.200740
  O     -1.358579    1.232360    1.189721
  H     -1.058250    1.216459    0.238591
  C     -0.389763    1.957873    1.943072
  H     -0.747221    2.012807    2.975200
  H     -0.260411    2.982763    1.565367
  H      0.585221    1.453754    1.934071

 Total Charge           Charge          ....    0
 Multiplicity           Mult            ....    1
 Number of Electrons    NEL             ....   54
 Basis Dimension        Dim             ....  258

ORBITAL ENERGIES
----------------

  NO   OCC          E(Eh)            E(eV)
   0   2.0000     -20.588241      -560.2345
   1   2.0000     -20.561668      -559.5114
   2   2.0000     -20.510134      -558.1091
   3   2.0000     -11.288298      -307.1702
   4   2.0000     -11.273178      -306.7588
   5   2.0000     -11.244099      -305.9675
   6   2.0000      -1.380943       -37.5774
   7   2.0000      -1.349376       -36.7184
   8   2.0000      -1.305777       -35.5320
   9   2.0000      -0.939571       -25.5670
  10   2.0000      -0.921383       -25.0721
  11   2.0000      -0.892511       -24.2865
  12   2.0000      -0.713272       -19.4091
  13   2.0000      -0.683641       -18.6028
  14   2.0000      -0.668910       -18.2020
  15   2.0000      -0.633957       -17.2508
  16   2.0000      -0.621013       -16.8986
  17   2.0000      -0.607121       -16.5206
  18   2.0000      -0.593363       -16.1462
  19   2.0000      -0.585122       -15.9220
  20   2.0000      -0.557598       -15.1730
  21   2.0000      -0.525796       -14.3076
  22   2.0000      -0.503315       -13.6959
  23   2.0000      -0.484061       -13.1720
  24   2.0000      -0.459533       -12.5045
  25   2.0000      -0.448114       -12.1938
  26   2.0000      -0.412579       -11.2269
  27   0.0000       0.115781         3.1506
  28   0.0000       0.139200         3.7878
  29   0.0000       0.161804         4.4029
  30   0.0000       0.174107         4.7377
  31   0.0000       0.191888         5.2215

MULLIKEN ATOMIC CHARGES
-----------------------
   0 O :   -0.520126
   1 H :    0.344182
   2 C :   -0.185530
   3 H :    0.147474
   4 H :    0.123300
   5 H :    0.124882
   6 O :   -0.533063
   7 H :    0.354964
   8 C :   -0.177921
   9 H :    0.113998
  10 H :    0.093277
  11 H :    0.098714
  12 O :   -0.499932
  13 H :    0.330860
  14 C :   -0.178199
  15 H :    0.129436
  16 H :    0.117035
  17 H :    0.116650
Sum of atomic charges:    0.0000000

LOEWDIN ATOMIC CHARGES
----------------------
   0 O :   -0.077991
   1 H :    0.202503
   2 C :   -0.374479
   3 H :    0.117157
   4 H :    0.103194
   5 H :    0.101561
   6 O :   -0.127653
   7 H :    0.159863
   8 C :   -0.398028
   9 H :    0.103025
  10 H :    0.090886
  11 H :    0.093827
  12 O :   -0.110219
  13 H :    0.193373
  14 C :   -0.381769
  15 H :    0.110620
  16 H :    0.097815
  17 H :    0.096314

  Mayer bond orders larger than 0.100000
B(  0-O ,  1-H ) :   0.8254 B(  0-O ,  2-C ) :   0.8760 B(  2-C ,  3-H ) :   0.9390
B(  2-C ,  4-H ) :   0.9340 B(  2-C ,  5-H ) :   0.9375 B(  6-O ,  7-H ) :   0.7951
B(  6-O ,  8-C ) :   0.9365 B(  8-C ,  9-H ) :   0.9409 B(  8-C , 10-H ) :   0.9339
B(  8-C , 11-H ) :   0.9362 B( 12-O , 13-H ) :   0.8363 B( 12-O , 14-C ) :   0.9097
B( 14-C , 15-H ) :   0.9384 B( 14-C , 16-H ) :   0.9393 B( 14-C , 17-H ) :   0.9373

MP2 TOTAL ENERGY:     -346.530998805 Eh
FINAL SINGLE POINT ENERGY      -346.530998805127

DIPOLE MOMENT
-------------
                                X             Y             Z
Electronic contribution:     -0.61667      -0.41495      -1.82910
Nuclear contribution   :     -0.37966       0.57060       1.63952
                        -----------------------------------------
Total Dipole Moment    :     -0.99632       0.15565      -0.18958
                        -----------------------------------------
Magnitude (a.u.)       :      1.02607
Magnitude (Debye)      :      2.60807

Rotational constants in cm-1:     0.113369     0.028044     0.023167
Rotational constants in MHz :  3398.706466   840.724527   694.529688

                             ****ORCA TERMINATED NORMALLY****
TOTAL RUN TIME: 0 days 0 hours 1 minutes 13 seconds 194 msec
