                         Program Version 4.2.0 -  RELEASE  -
|  1> # 12h2o.su.etal.mol0,3,6,8,9,10,11
|  2> ! MP2 def2-TZVP EnGrad TightSCF
|  3>
|  4> %pal
|  5>     nprocs 6
|  6> end
|  7>
|  8> %maxcore 8000
|  9>
| 10> %scf
| 11>     ConvForced true
| 12> end
| 13>
| 14> *xyz 0 1
| 15> O   1.794470000   0.923410000   2.768350000
| 16> H   2.338250000   1.359750000   3.430940000
| 17> H   0.879480000   1.303000000   2.865760000
| 18> O  -1.752130000  -0.741530000  -2.896280000
| 19> H  -2.036450000  -0.920500000  -1.984040000
| 20> H  -0.921210000  -1.242140000  -2.984230000
| 21> O   1.737840000   0.885520000  -0.052730000
| 22> H   2.090180000   1.032320000   0.841890000
| 23> H   0.839590000   1.284090000  -0.017130000
| 24> O   1.752130000   0.741530000  -2.896280000
| 25> H   2.036450000   0.920500000  -1.984040000
| 26> H   0.921210000   1.242140000  -2.984230000
| 27> O   0.741530000  -1.752130000   2.896280000
| 28> H   0.920500000  -2.036450000   1.984040000
| 29> H   1.242140000  -0.921210000   2.984230000
| 30> O  -0.923410000   1.794470000  -2.768350000
| 31> H  -1.359750000   2.338250000  -3.430940000
| 32> H  -1.303000000   0.879480000  -2.865760000
| 33> O  -0.741530000   1.752130000   2.896280000
| 34> H  -0.920500000   2.036450000   1.984040000
| 35> H  -1.242140000   0.921210000   2.984230000
| 36> *
| 37>
| 38>                          ****END OF INPUT****

CARTESIAN COORDINATES (ANGSTROEM)
---------------------------------
  O      1.794470    0.923410    2.768350
  H      2.338250    1.359750    3.430940
  H      0.879480    1.303000    2.865760
  O     -1.752130   -0.741530   -2.896280
  H     -2.036450   -0.920500   -1.984040
  H     -0.921210   -1.242140   -2.984230
  O      1.737840    0.885520   -0.052730
  H      2.090180    1.032320    0.841890
  H      0.839590    1.284090   -0.017130
  O      1.752130    0.741530   -2.896280
  H      2.036450    0.920500   -1.984040
  H      0.921210    1.242140   -2.984230
  O      0.741530   -1.752130    2.896280
  H      0.920500   -2.036450    1.984040
  H      1.242140   -0.921210    2.984230
  O     -0.923410    1.794470   -2.768350
  H     -1.359750    2.338250   -3.430940
  H     -1.303000    0.879480   -2.865760
  O     -0.741530    1.752130    2.896280
  H     -0.920500    2.036450    1.984040
  H     -1.242140    0.921210    2.984230

 Total Charge           Charge          ....    0
 Multiplicity           Mult            ....    1
 Number of Electrons    NEL             ....   70
 Basis Dimension        Dim             ....  301

ORBITAL ENERGIES
----------------

  NO   OCC          E(Eh)            E(eV)
   0   2.0000     -20.622602      -561.1695
   1   2.0000     -20.604280      -560.6710
   2   2.0000     -20.580062      -560.0120
   3   2.0000     -20.559767      -559.4597
   4   2.0000     -20.550013      -559.1943
   5   2.0000     -20.541085      -558.9513
   6   2.0000     -20.497837      -557.7745
   7   2.0000      -1.408815       -38.3358
   8   2.0000      -1.390023       -37.8244
   9   2.0000      -1.366807       -37.1927
  10   2.0000      -1.340451       -36.4755
  11   2.0000      -1.334012       -36.3003
  12   2.0000      -1.323223       -36.0067
  13   2.0000      -1.282968       -34.9113
  14   2.0000      -0.764657       -20.8074
  15   2.0000      -0.748611       -20.3707
  16   2.0000      -0.746621       -20.3166
  17   2.0000      -0.719394       -19.5757
  18   2.0000      -0.709962       -19.3191
  19   2.0000      -0.693223       -18.8635
  20   2.0000      -0.660373       -17.9697
  21   2.0000      -0.649876       -17.6840
  22   2.0000      -0.628623       -17.1057
  23   2.0000      -0.611903       -16.6507
  24   2.0000      -0.590873       -16.0785
  25   2.0000      -0.578994       -15.7552
  26   2.0000      -0.566619       -15.4185
  27   2.0000      -0.551766       -15.0143
  28   2.0000      -0.537173       -14.6172
  29   2.0000      -0.527298       -14.3485
  30   2.0000      -0.520114       -14.1530
  31   2.0000      -0.504286       -13.7223
  32   2.0000      -0.492631       -13.4052
  33   2.0000      -0.488822       -13.3015
  34   2.0000      -0.448123       -12.1940
  35   0.0000       0.074145         2.0176
  36   0.0000       0.109826         2.9885
  37   0.0000       0.138079         3.7573
  38   0.0000       0.150257         4.0887
  39   0.0000       0.163714         4.4549

MULLIKEN ATOMIC CHARGES
-----------------------
   0 O :   -0.749968
   1 H :    0.354394
   2 H :    0.381419
   3 O :   -0.684660
   4 H :    0.354645
   5 H :    0.374757
   6 O :   -0.705237
   7 H :    0.374715
   8 H :    0.317740
   9 O :   -0.737519
  10 H :    0.367486
  11 H :    0.344593
  12 O :   -0.715009
  13 H :    0.334121
  14 H :    0.361657
  15 O :   -0.741134
  16 H :    0.341098
  17 H :    0.376654
  18 O :   -0.681598
  19 H :    0.357715
  20 H :    0.374129
Sum of atomic charges:   -0.0000000

LOEWDIN ATOMIC CHARGES
----------------------
   0 O :   -0.311869
   1 H :    0.161302
   2 H :    0.145562
   3 O :   -0.269765
   4 H :    0.173217
   5 H :    0.182248
   6 O :   -0.324176
   7 H :    0.151398
   8 H :    0.160070
   9 O :   -0.360800
  10 H :    0.148989
  11 H :    0.139499
  12 O :   -0.350431
  13 H :    0.161659
  14 H :    0.146025
  15 O :   -0.342792
  16 H :    0.155528
  17 H :    0.144312
  18 O :   -0.265107
  19 H :    0.172959
  20 H :    0.182172

  Mayer bond orders larger than 0.100000
B(  0-O ,  1-H ) :   0.8383 B(  0-O ,  2-H ) :   0.7520 B(  3-O ,  4-H ) :   0.8395
B(  3-O ,  5-H ) :   0.8219 B(  6-O ,  7-H ) :   0.8043 B(  6-O ,  8-H ) :   0.8535
B(  9-O , 10-H ) :   0.8238 B(  9-O , 11-H ) :   0.8232 B( 12-O , 13-H ) :   0.8540
B( 12-O , 14-H ) :   0.8140 B( 15-O , 16-H ) :   0.8486 B( 15-O , 17-H ) :   0.7667
B( 18-O , 19-H ) :   0.8367 B( 18-O , 20-H ) :   0.8227

MP2 TOTAL ENERGY:     -534.244743500 Eh
FINAL SINGLE POINT ENERGY      -534.244743500257

DIPOLE MOMENT
-------------
                                X             Y             Z
Electronic contribution:     -0.19770      -0.14061       0.22335
Nuclear contribution   :     -1.44252       0.82411       0.77428
                        -----------------------------------------
Total Dipole Moment    :     -1.64022       0.68350       0.99763
                        -----------------------------------------
Magnitude (a.u.)       :      2.03783
Magnitude (Debye)      :      5.17976

Rotational constants in cm-1:     0.042369     0.015518     0.014990
Rotational constants in MHz :  1270.182280   465.221610   449.393945

                             ****ORCA TERMINATED NORMALLY****
TOTAL RUN TIME: 0 days 0 hours 1 minutes 41 seconds 173 msec
