                         Program Version 4.2.0 -  RELEASE  -
|  1> # 12h2o.su.etal.mol3,4,7,9,10,11
|  2> ! MP2 def2-TZVP EnGrad TightSCF
|  3>
|  4> %pal
|  5>     nprocs 6
|  6> end
|  7>
|  8> %maxcore 8000
|  9>
| 10> %scf
| 11>     ConvForced true
| 12> end
| 13>
| 14> *xyz 0 1
| 15> O  -1.752130000  -0.741530000  -2.896280000
| 16> H  -2.036450000  -0.920500000  -1.984040000
| 17> H  -0.921210000  -1.242140000  -2.984230000
| 18> O  -0.885520000   1.737840000   0.052730000
| 19> H  -1.032320000   2.090180000  -0.841890000
| 20> H  -1.284090000   0.839590000   0.017130000
| 21> O  -1.737840000  -0.885520000  -0.052730000
| 22> H  -2.090180000  -1.032320000   0.841890000
| 23> H  -0.839590000  -1.284090000  -0.017130000
| 24> O   0.741530000  -1.752130000   2.896280000
| 25> H   0.920500000  -2.036450000   1.984040000
| 26> H   1.242140000  -0.921210000   2.984230000
| 27> O  -0.923410000   1.794470000  -2.768350000
| 28> H  -1.359750000   2.338250000  -3.430940000
| 29> H  -1.303000000   0.879480000  -2.865760000
| 30> O  -0.741530000   1.752130000   2.896280000
| 31> H  -0.920500000   2.036450000   1.984040000
| 32> H  -1.242140000   0.921210000   2.984230000
| 33> *
| 34>
| 35>                          ****END OF INPUT****

CARTESIAN COORDINATES (ANGSTROEM)
---------------------------------
  O     -1.752130   -0.741530   -2.896280
  H     -2.036450   -0.920500   -1.984040
  H     -0.921210   -1.242140   -2.984230
  O     -0.885520    1.737840    0.052730
  H     -1.032320    2.090180   -0.841890
  H     -1.284090    0.839590    0.017130
  O     -1.737840   -0.885520   -0.052730
  H     -2.090180   -1.032320    0.841890
  H     -0.839590   -1.284090   -0.017130
  O      0.741530   -1.752130    2.896280
  H      0.920500   -2.036450    1.984040
  H      1.242140   -0.921210    2.984230
  O     -0.923410    1.794470   -2.768350
  H     -1.359750    2.338250   -3.430940
  H     -1.303000    0.879480   -2.865760
  O     -0.741530    1.752130    2.896280
  H     -0.920500    2.036450    1.984040
  H     -1.242140    0.921210    2.984230

 Total Charge           Charge          ....    0
 Multiplicity           Mult            ....    1
 Number of Electrons    NEL             ....   60
 Basis Dimension        Dim             ....  258

ORBITAL ENERGIES
----------------

  NO   OCC          E(Eh)            E(eV)
   0   2.0000     -20.636880      -561.5580
   1   2.0000     -20.595858      -560.4418
   2   2.0000     -20.580127      -560.0137
   3   2.0000     -20.543748      -559.0238
   4   2.0000     -20.527283      -558.5758
   5   2.0000     -20.526970      -558.5672
   6   2.0000      -1.420045       -38.6414
   7   2.0000      -1.383886       -37.6574
   8   2.0000      -1.359001       -36.9803
   9   2.0000      -1.329718       -36.1835
  10   2.0000      -1.315872       -35.8067
  11   2.0000      -1.305295       -35.5189
  12   2.0000      -0.779550       -21.2126
  13   2.0000      -0.745993       -20.2995
  14   2.0000      -0.721661       -19.6374
  15   2.0000      -0.713639       -19.4191
  16   2.0000      -0.699958       -19.0468
  17   2.0000      -0.677387       -18.4326
  18   2.0000      -0.661659       -18.0047
  19   2.0000      -0.616207       -16.7678
  20   2.0000      -0.600810       -16.3489
  21   2.0000      -0.596583       -16.2339
  22   2.0000      -0.568777       -15.4772
  23   2.0000      -0.556991       -15.1565
  24   2.0000      -0.534065       -14.5326
  25   2.0000      -0.525596       -14.3022
  26   2.0000      -0.524031       -14.2596
  27   2.0000      -0.491755       -13.3813
  28   2.0000      -0.479094       -13.0368
  29   2.0000      -0.472322       -12.8525
  30   0.0000       0.064438         1.7534
  31   0.0000       0.119446         3.2503
  32   0.0000       0.126840         3.4515
  33   0.0000       0.156500         4.2586
  34   0.0000       0.170720         4.6455

MULLIKEN ATOMIC CHARGES
-----------------------
   0 O :   -0.687760
   1 H :    0.386000
   2 H :    0.348249
   3 O :   -0.740074
   4 H :    0.375029
   5 H :    0.329438
   6 O :   -0.705892
   7 H :    0.377896
   8 H :    0.355862
   9 O :   -0.677914
  10 H :    0.320338
  11 H :    0.360372
  12 O :   -0.735606
  13 H :    0.336108
  14 H :    0.369279
  15 O :   -0.697608
  16 H :    0.378553
  17 H :    0.307728
Sum of atomic charges:   -0.0000000

LOEWDIN ATOMIC CHARGES
----------------------
   0 O :   -0.271312
   1 H :    0.158256
   2 H :    0.171565
   3 O :   -0.347485
   4 H :    0.151281
   5 H :    0.132859
   6 O :   -0.274817
   7 H :    0.180575
   8 H :    0.177997
   9 O :   -0.328925
  10 H :    0.156080
  11 H :    0.175231
  12 O :   -0.340351
  13 H :    0.153484
  14 H :    0.143305
  15 O :   -0.341566
  16 H :    0.154270
  17 H :    0.149554

  Mayer bond orders larger than 0.100000
B(  0-O ,  1-H ) :   0.8068 B(  0-O ,  2-H ) :   0.8428 B(  3-O ,  4-H ) :   0.8033
B(  3-O ,  5-H ) :   0.8132 B(  6-O ,  7-H ) :   0.8223 B(  6-O ,  8-H ) :   0.8291
B(  9-O , 10-H ) :   0.8612 B(  9-O , 11-H ) :   0.8343 B( 12-O , 13-H ) :   0.8510
B( 12-O , 14-H ) :   0.7678 B( 15-O , 16-H ) :   0.8061 B( 15-O , 17-H ) :   0.8667

MP2 TOTAL ENERGY:     -457.915674498 Eh
FINAL SINGLE POINT ENERGY      -457.915674498149

DIPOLE MOMENT
-------------
                                X             Y             Z
Electronic contribution:     -0.07583      -0.12547      -0.00613
Nuclear contribution   :     -0.22373      -1.78297      -1.31870
                        -----------------------------------------
Total Dipole Moment    :     -0.29956      -1.90844      -1.32483
                        -----------------------------------------
Magnitude (a.u.)       :      2.34245
Magnitude (Debye)      :      5.95403

Rotational constants in cm-1:     0.062141     0.025143     0.019646
Rotational constants in MHz :  1862.951024   753.776292   588.979677

                             ****ORCA TERMINATED NORMALLY****
TOTAL RUN TIME: 0 days 0 hours 1 minutes 1 seconds 210 msec
