                         Program Version 4.2.0 -  RELEASE  -
|  1> # 12h2o.su.etal.mol1,3,4,5
|  2> ! MP2 def2-TZVP EnGrad TightSCF
|  3>
|  4> %pal
|  5>     nprocs 6
|  6> end
|  7>
|  8> %maxcore 8000
|  9>
| 10> %scf
| 11>     ConvForced true
| 12> end
| 13>
| 14> *xyz 0 1
| 15> O  -1.794470000  -0.923410000   2.768350000
| 16> H  -2.338250000  -1.359750000   3.430940000
| 17> H  -0.879480000  -1.303000000   2.865760000
| 18> O  -1.752130000  -0.741530000  -2.896280000
| 19> H  -2.036450000  -0.920500000  -1.984040000
| 20> H  -0.921210000  -1.242140000  -2.984230000
| 21> O  -0.885520000   1.737840000   0.052730000
| 22> H  -1.032320000   2.090180000  -0.841890000
| 23> H  -1.284090000   0.839590000   0.017130000
| 24> O   0.885520000  -1.737840000   0.052730000
| 25> H   1.284090000  -0.839590000   0.017130000
| 26> H   1.032320000  -2.090180000  -0.841890000
| 27> *
| 28>
| 29>                          ****END OF INPUT****

CARTESIAN COORDINATES (ANGSTROEM)
---------------------------------
  O     -1.794470   -0.923410    2.768350
  H     -2.338250   -1.359750    3.430940
  H     -0.879480   -1.303000    2.865760
  O     -1.752130   -0.741530   -2.896280
  H     -2.036450   -0.920500   -1.984040
  H     -0.921210   -1.242140   -2.984230
  O     -0.885520    1.737840    0.052730
  H     -1.032320    2.090180   -0.841890
  H     -1.284090    0.839590    0.017130
  O      0.885520   -1.737840    0.052730
  H      1.284090   -0.839590    0.017130
  H      1.032320   -2.090180   -0.841890

 Total Charge           Charge          ....    0
 Multiplicity           Mult            ....    1
 Number of Electrons    NEL             ....   40
 Basis Dimension        Dim             ....  172

ORBITAL ENERGIES
----------------

  NO   OCC          E(Eh)            E(eV)
   0   2.0000     -20.578793      -559.9774
   1   2.0000     -20.574355      -559.8567
   2   2.0000     -20.557709      -559.4037
   3   2.0000     -20.554903      -559.3273
   4   2.0000      -1.354694       -36.8631
   5   2.0000      -1.353267       -36.8243
   6   2.0000      -1.333031       -36.2736
   7   2.0000      -1.330651       -36.2089
   8   2.0000      -0.717016       -19.5110
   9   2.0000      -0.715809       -19.4781
  10   2.0000      -0.701282       -19.0829
  11   2.0000      -0.692208       -18.8359
  12   2.0000      -0.594490       -16.1769
  13   2.0000      -0.590488       -16.0680
  14   2.0000      -0.570378       -15.5208
  15   2.0000      -0.569596       -15.4995
  16   2.0000      -0.521954       -14.2031
  17   2.0000      -0.517598       -14.0846
  18   2.0000      -0.500904       -13.6303
  19   2.0000      -0.497519       -13.5382
  20   0.0000       0.082815         2.2535
  21   0.0000       0.131072         3.5667
  22   0.0000       0.141938         3.8623
  23   0.0000       0.160829         4.3764
  24   0.0000       0.188754         5.1363

MULLIKEN ATOMIC CHARGES
-----------------------
   0 O :   -0.686937
   1 H :    0.336777
   2 H :    0.350979
   3 O :   -0.669759
   4 H :    0.339027
   5 H :    0.330940
   6 O :   -0.679912
   7 H :    0.336925
   8 H :    0.340975
   9 O :   -0.680526
  10 H :    0.351452
  11 H :    0.330060
Sum of atomic charges:   -0.0000000

LOEWDIN ATOMIC CHARGES
----------------------
   0 O :   -0.340072
   1 H :    0.157141
   2 H :    0.183459
   3 O :   -0.326970
   4 H :    0.163845
   5 H :    0.163240
   6 O :   -0.335568
   7 H :    0.164106
   8 H :    0.168879
   9 O :   -0.335588
  10 H :    0.176378
  11 H :    0.161150

  Mayer bond orders larger than 0.100000
B(  0-O ,  1-H ) :   0.8539 B(  0-O ,  2-H ) :   0.8390 B(  3-O ,  4-H ) :   0.8497
B(  3-O ,  5-H ) :   0.8555 B(  6-O ,  7-H ) :   0.8517 B(  6-O ,  8-H ) :   0.8435
B(  9-O , 10-H ) :   0.8386 B(  9-O , 11-H ) :   0.8555

MP2 TOTAL ENERGY:     -305.256665322 Eh
FINAL SINGLE POINT ENERGY      -305.256665322454

DIPOLE MOMENT
-------------
                                X             Y             Z
Electronic contribution:     -0.12509       0.19720       0.06882
Nuclear contribution   :      0.76395      -1.24480      -0.22986
                        -----------------------------------------
Total Dipole Moment    :      0.63886      -1.04761      -0.16104
                        -----------------------------------------
Magnitude (a.u.)       :      1.23756
Magnitude (Debye)      :      3.14562

Rotational constants in cm-1:     0.080867     0.046441     0.039256
Rotational constants in MHz :  2424.321768  1392.255410  1176.864344

                             ****ORCA TERMINATED NORMALLY****
TOTAL RUN TIME: 0 days 0 hours 0 minutes 14 seconds 148 msec
