                         Program Version 4.2.0 -  RELEASE  -
|  1> # 12h2o.su.etal.mol7,9,10,11
|  2> ! MP2 def2-TZVP EnGrad TightSCF
|  3>
|  4> %pal
|  5>     nprocs 6
|  6> end
|  7>
|  8> %maxcore 8000
|  9>
| 10> %scf
| 11>     ConvForced true
| 12> end
| 13>
| 14> *xyz 0 1
| 15> O  -1.737840000  -0.885520000  -0.052730000
| 16> H  -2.090180000  -1.032320000   0.841890000
| 17> H  -0.839590000  -1.284090000  -0.017130000
| 18> O   0.741530000  -1.752130000   2.896280000
| 19> H   0.920500000  -2.036450000   1.984040000
| 20> H   1.242140000  -0.921210000   2.984230000
| 21> O  -0.923410000   1.794470000  -2.768350000
| 22> H  -1.359750000   2.338250000  -3.430940000
| 23> H  -1.303000000   0.879480000  -2.865760000
| 24> O  -0.741530000   1.752130000   2.896280000
| 25> H  -0.920500000   2.036450000   1.984040000
| 26> H  -1.242140000   0.921210000   2.984230000
| 27> *
| 28>
| 29>                          ****END OF INPUT****

CARTESIAN COORDINATES (ANGSTROEM)
---------------------------------
  O     -1.737840   -0.885520   -0.052730
  H     -2.090180   -1.032320    0.841890
  H     -0.839590   -1.284090   -0.017130
  O      0.741530   -1.752130    2.896280
  H      0.920500   -2.036450    1.984040
  H      1.242140   -0.921210    2.984230
  O     -0.923410    1.794470   -2.768350
  H     -1.359750    2.338250   -3.430940
  H     -1.303000    0.879480   -2.865760
  O     -0.741530    1.752130    2.896280
  H     -0.920500    2.036450    1.984040
  H     -1.242140    0.921210    2.984230

 Total Charge           Charge          ....    0
 Multiplicity           Mult            ....    1
 Number of Electrons    NEL             ....   40
 Basis Dimension        Dim             ....  172

ORBITAL ENERGIES
----------------

  NO   OCC          E(Eh)            E(eV)
   0   2.0000     -20.578210      -559.9616
   1   2.0000     -20.576238      -559.9079
   2   2.0000     -20.561174      -559.4980
   3   2.0000     -20.558834      -559.4343
   4   2.0000      -1.355331       -36.8804
   5   2.0000      -1.353780       -36.8382
   6   2.0000      -1.340251       -36.4701
   7   2.0000      -1.334206       -36.3056
   8   2.0000      -0.718455       -19.5502
   9   2.0000      -0.715779       -19.4773
  10   2.0000      -0.702762       -19.1231
  11   2.0000      -0.702436       -19.1142
  12   2.0000      -0.594218       -16.1695
  13   2.0000      -0.592245       -16.1158
  14   2.0000      -0.578230       -15.7344
  15   2.0000      -0.570591       -15.5266
  16   2.0000      -0.521874       -14.2009
  17   2.0000      -0.519326       -14.1316
  18   2.0000      -0.504748       -13.7349
  19   2.0000      -0.502061       -13.6618
  20   0.0000       0.082444         2.2434
  21   0.0000       0.130051         3.5389
  22   0.0000       0.136361         3.7106
  23   0.0000       0.160635         4.3711
  24   0.0000       0.186213         5.0671

MULLIKEN ATOMIC CHARGES
-----------------------
   0 O :   -0.670986
   1 H :    0.339446
   2 H :    0.331974
   3 O :   -0.677947
   4 H :    0.326498
   5 H :    0.352823
   6 O :   -0.686715
   7 H :    0.336803
   8 H :    0.348753
   9 O :   -0.681862
  10 H :    0.346618
  11 H :    0.334594
Sum of atomic charges:   -0.0000000

LOEWDIN ATOMIC CHARGES
----------------------
   0 O :   -0.332263
   1 H :    0.164708
   2 H :    0.168311
   3 O :   -0.329118
   4 H :    0.159044
   5 H :    0.171684
   6 O :   -0.340797
   7 H :    0.156957
   8 H :    0.182413
   9 O :   -0.331792
  10 H :    0.168540
  11 H :    0.162315

  Mayer bond orders larger than 0.100000
B(  0-O ,  1-H ) :   0.8501 B(  0-O ,  2-H ) :   0.8522 B(  3-O ,  4-H ) :   0.8572
B(  3-O ,  5-H ) :   0.8399 B(  6-O ,  7-H ) :   0.8542 B(  6-O ,  8-H ) :   0.8407
B(  9-O , 10-H ) :   0.8465 B(  9-O , 11-H ) :   0.8512

MP2 TOTAL ENERGY:     -305.256465034 Eh
FINAL SINGLE POINT ENERGY      -305.256465034351

DIPOLE MOMENT
-------------
                                X             Y             Z
Electronic contribution:      0.03142       0.14094       0.21926
Nuclear contribution   :     -0.22475      -0.76293      -1.23053
                        -----------------------------------------
Total Dipole Moment    :     -0.19334      -0.62199      -1.01126
                        -----------------------------------------
Magnitude (a.u.)       :      1.20287
Magnitude (Debye)      :      3.05746

Rotational constants in cm-1:     0.094673     0.033725     0.028081
Rotational constants in MHz :  2838.216980  1011.062292   841.837229

                             ****ORCA TERMINATED NORMALLY****
TOTAL RUN TIME: 0 days 0 hours 0 minutes 14 seconds 574 msec
