                         Program Version 4.2.0 -  RELEASE  -
|  1> # 12h2o.su.etal.mol1,3,4,7,10,11
|  2> ! MP2 def2-TZVP EnGrad TightSCF
|  3>
|  4> %pal
|  5>     nprocs 6
|  6> end
|  7>
|  8> %maxcore 8000
|  9>
| 10> %scf
| 11>     ConvForced true
| 12> end
| 13>
| 14> *xyz 0 1
| 15> O  -1.794470000  -0.923410000   2.768350000
| 16> H  -2.338250000  -1.359750000   3.430940000
| 17> H  -0.879480000  -1.303000000   2.865760000
| 18> O  -1.752130000  -0.741530000  -2.896280000
| 19> H  -2.036450000  -0.920500000  -1.984040000
| 20> H  -0.921210000  -1.242140000  -2.984230000
| 21> O  -0.885520000   1.737840000   0.052730000
| 22> H  -1.032320000   2.090180000  -0.841890000
| 23> H  -1.284090000   0.839590000   0.017130000
| 24> O  -1.737840000  -0.885520000  -0.052730000
| 25> H  -2.090180000  -1.032320000   0.841890000
| 26> H  -0.839590000  -1.284090000  -0.017130000
| 27> O  -0.923410000   1.794470000  -2.768350000
| 28> H  -1.359750000   2.338250000  -3.430940000
| 29> H  -1.303000000   0.879480000  -2.865760000
| 30> O  -0.741530000   1.752130000   2.896280000
| 31> H  -0.920500000   2.036450000   1.984040000
| 32> H  -1.242140000   0.921210000   2.984230000
| 33> *
| 34>
| 35>                          ****END OF INPUT****

CARTESIAN COORDINATES (ANGSTROEM)
---------------------------------
  O     -1.794470   -0.923410    2.768350
  H     -2.338250   -1.359750    3.430940
  H     -0.879480   -1.303000    2.865760
  O     -1.752130   -0.741530   -2.896280
  H     -2.036450   -0.920500   -1.984040
  H     -0.921210   -1.242140   -2.984230
  O     -0.885520    1.737840    0.052730
  H     -1.032320    2.090180   -0.841890
  H     -1.284090    0.839590    0.017130
  O     -1.737840   -0.885520   -0.052730
  H     -2.090180   -1.032320    0.841890
  H     -0.839590   -1.284090   -0.017130
  O     -0.923410    1.794470   -2.768350
  H     -1.359750    2.338250   -3.430940
  H     -1.303000    0.879480   -2.865760
  O     -0.741530    1.752130    2.896280
  H     -0.920500    2.036450    1.984040
  H     -1.242140    0.921210    2.984230

 Total Charge           Charge          ....    0
 Multiplicity           Mult            ....    1
 Number of Electrons    NEL             ....   60
 Basis Dimension        Dim             ....  258

ORBITAL ENERGIES
----------------

  NO   OCC          E(Eh)            E(eV)
   0   2.0000     -20.625774      -561.2559
   1   2.0000     -20.605975      -560.7171
   2   2.0000     -20.584221      -560.1251
   3   2.0000     -20.533687      -558.7500
   4   2.0000     -20.509286      -558.0861
   5   2.0000     -20.497066      -557.7535
   6   2.0000      -1.407433       -38.2982
   7   2.0000      -1.391207       -37.8567
   8   2.0000      -1.371711       -37.3262
   9   2.0000      -1.318881       -35.8886
  10   2.0000      -1.296825       -35.2884
  11   2.0000      -1.280983       -34.8573
  12   2.0000      -0.772327       -21.0161
  13   2.0000      -0.756786       -20.5932
  14   2.0000      -0.732411       -19.9299
  15   2.0000      -0.703296       -19.1377
  16   2.0000      -0.680893       -18.5280
  17   2.0000      -0.666818       -18.1450
  18   2.0000      -0.653568       -17.7845
  19   2.0000      -0.626592       -17.0504
  20   2.0000      -0.601370       -16.3641
  21   2.0000      -0.584932       -15.9168
  22   2.0000      -0.569829       -15.5058
  23   2.0000      -0.551194       -14.9988
  24   2.0000      -0.527173       -14.3451
  25   2.0000      -0.516316       -14.0497
  26   2.0000      -0.509625       -13.8676
  27   2.0000      -0.480304       -13.0697
  28   2.0000      -0.460948       -12.5430
  29   2.0000      -0.446477       -12.1493
  30   0.0000       0.078828         2.1450
  31   0.0000       0.113607         3.0914
  32   0.0000       0.149929         4.0798
  33   0.0000       0.167443         4.5564
  34   0.0000       0.183134         4.9833

MULLIKEN ATOMIC CHARGES
-----------------------
   0 O :   -0.713274
   1 H :    0.368899
   2 H :    0.369688
   3 O :   -0.691281
   4 H :    0.387064
   5 H :    0.346677
   6 O :   -0.740826
   7 H :    0.369527
   8 H :    0.335318
   9 O :   -0.719967
  10 H :    0.391771
  11 H :    0.348836
  12 O :   -0.733983
  13 H :    0.332888
  14 H :    0.369376
  15 O :   -0.725807
  16 H :    0.375082
  17 H :    0.330013
Sum of atomic charges:    0.0000000

LOEWDIN ATOMIC CHARGES
----------------------
   0 O :   -0.286023
   1 H :    0.170096
   2 H :    0.191862
   3 O :   -0.274185
   4 H :    0.157730
   5 H :    0.170677
   6 O :   -0.348228
   7 H :    0.149139
   8 H :    0.134309
   9 O :   -0.283520
  10 H :    0.158377
  11 H :    0.174849
  12 O :   -0.340393
  13 H :    0.151880
  14 H :    0.143443
  15 O :   -0.357046
  16 H :    0.152270
  17 H :    0.134764

  Mayer bond orders larger than 0.100000
B(  0-O ,  1-H ) :   0.8294 B(  0-O ,  2-H ) :   0.8212 B(  3-O ,  4-H ) :   0.8022
B(  3-O ,  5-H ) :   0.8437 B(  6-O ,  7-H ) :   0.8076 B(  6-O ,  8-H ) :   0.8083
B(  9-O , 10-H ) :   0.7914 B(  9-O , 11-H ) :   0.8363 B( 12-O , 13-H ) :   0.8527
B( 12-O , 14-H ) :   0.7674 B( 15-O , 16-H ) :   0.8106 B( 15-O , 17-H ) :   0.8491

MP2 TOTAL ENERGY:     -457.925151853 Eh
FINAL SINGLE POINT ENERGY      -457.925151852523

DIPOLE MOMENT
-------------
                                X             Y             Z
Electronic contribution:     -0.13838      -0.12671      -0.00424
Nuclear contribution   :     -0.48041      -2.91709       0.00000
                        -----------------------------------------
Total Dipole Moment    :     -0.61879      -3.04380      -0.00424
                        -----------------------------------------
Magnitude (a.u.)       :      3.10606
Magnitude (Debye)      :      7.89499

Rotational constants in cm-1:     0.079287     0.028793     0.021322
Rotational constants in MHz :  2376.968519   863.180209   639.215912

                             ****ORCA TERMINATED NORMALLY****
TOTAL RUN TIME: 0 days 0 hours 1 minutes 10 seconds 313 msec
