                         Program Version 4.2.0 -  RELEASE  -
|  1> # 12meoh.boyd.etal.mol1,7,10
|  2> ! MP2 def2-TZVP EnGrad TightSCF
|  3>
|  4> %pal
|  5>     nprocs 6
|  6> end
|  7>
|  8> %maxcore 8000
|  9>
| 10> %scf
| 11>     ConvForced true
| 12> end
| 13>
| 14> *xyz 0 1
| 15> O   0.666045193  -2.600503172   0.138317521
| 16> H  -0.227115049  -2.712051982  -0.281868004
| 17> C   0.490021232  -1.851247678   1.341189459
| 18> H   1.466500502  -1.466176022   1.645844415
| 19> H   0.097564527  -2.488364683   2.146902740
| 20> H  -0.187588112  -1.000787499   1.200739571
| 21> O   4.310535586  -1.588322800   0.656128299
| 22> H   3.804372199  -1.630404735  -0.196849819
| 23> C   4.312298137  -2.894980854   1.222112691
| 24> H   4.713177833  -2.819907076   2.237066773
| 25> H   4.957796734  -3.574699304   0.648211180
| 26> H   3.302735989  -3.324433205   1.269756773
| 27> O  -5.201143618   0.064582726  -0.172223772
| 28> H  -4.686891530   0.869258890   0.107806143
| 29> C  -6.513192168   0.171391798   0.359883449
| 30> H  -7.049381312  -0.749234190   0.111361174
| 31> H  -7.057741163   1.017801101  -0.081819420
| 32> H  -6.514770575   0.292264928   1.453058834
| 33> *
| 34>
| 35>                          ****END OF INPUT****

CARTESIAN COORDINATES (ANGSTROEM)
---------------------------------
  O      0.666045   -2.600503    0.138318
  H     -0.227115   -2.712052   -0.281868
  C      0.490021   -1.851248    1.341189
  H      1.466501   -1.466176    1.645844
  H      0.097565   -2.488365    2.146903
  H     -0.187588   -1.000787    1.200740
  O      4.310536   -1.588323    0.656128
  H      3.804372   -1.630405   -0.196850
  C      4.312298   -2.894981    1.222113
  H      4.713178   -2.819907    2.237067
  H      4.957797   -3.574699    0.648211
  H      3.302736   -3.324433    1.269757
  O     -5.201144    0.064583   -0.172224
  H     -4.686892    0.869259    0.107806
  C     -6.513192    0.171392    0.359883
  H     -7.049381   -0.749234    0.111361
  H     -7.057741    1.017801   -0.081819
  H     -6.514771    0.292265    1.453059

 Total Charge           Charge          ....    0
 Multiplicity           Mult            ....    1
 Number of Electrons    NEL             ....   54
 Basis Dimension        Dim             ....  258

ORBITAL ENERGIES
----------------

  NO   OCC          E(Eh)            E(eV)
   0   2.0000     -20.562787      -559.5419
   1   2.0000     -20.560856      -559.4893
   2   2.0000     -20.547962      -559.1385
   3   2.0000     -11.275639      -306.8257
   4   2.0000     -11.271188      -306.7046
   5   2.0000     -11.260920      -306.4252
   6   2.0000      -1.352819       -36.8121
   7   2.0000      -1.348809       -36.7029
   8   2.0000      -1.337461       -36.3942
   9   2.0000      -0.923634       -25.1334
  10   2.0000      -0.920615       -25.0512
  11   2.0000      -0.909465       -24.7478
  12   2.0000      -0.687178       -18.6991
  13   2.0000      -0.684928       -18.6378
  14   2.0000      -0.670943       -18.2573
  15   2.0000      -0.621368       -16.9083
  16   2.0000      -0.618098       -16.8193
  17   2.0000      -0.609165       -16.5762
  18   2.0000      -0.596351       -16.2275
  19   2.0000      -0.589330       -16.0365
  20   2.0000      -0.581404       -15.8208
  21   2.0000      -0.504627       -13.7316
  22   2.0000      -0.503073       -13.6893
  23   2.0000      -0.491101       -13.3635
  24   2.0000      -0.453475       -12.3397
  25   2.0000      -0.451976       -12.2989
  26   2.0000      -0.439310       -11.9542
  27   0.0000       0.123599         3.3633
  28   0.0000       0.134070         3.6482
  29   0.0000       0.163780         4.4567
  30   0.0000       0.170179         4.6308
  31   0.0000       0.176629         4.8063

MULLIKEN ATOMIC CHARGES
-----------------------
   0 O :   -0.509068
   1 H :    0.326426
   2 C :   -0.195890
   3 H :    0.147441
   4 H :    0.112780
   5 H :    0.116232
   6 O :   -0.509478
   7 H :    0.330683
   8 C :   -0.183423
   9 H :    0.123739
  10 H :    0.112110
  11 H :    0.128419
  12 O :   -0.499244
  13 H :    0.322068
  14 C :   -0.172537
  15 H :    0.129687
  16 H :    0.110352
  17 H :    0.109703
Sum of atomic charges:   -0.0000000

LOEWDIN ATOMIC CHARGES
----------------------
   0 O :   -0.116568
   1 H :    0.192012
   2 C :   -0.381556
   3 H :    0.110899
   4 H :    0.096772
   5 H :    0.097352
   6 O :   -0.110245
   7 H :    0.192389
   8 C :   -0.383413
   9 H :    0.107709
  10 H :    0.095949
  11 H :    0.098684
  12 O :   -0.108424
  13 H :    0.190953
  14 C :   -0.384444
  15 H :    0.110611
  16 H :    0.095734
  17 H :    0.095586

  Mayer bond orders larger than 0.100000
B(  0-O ,  1-H ) :   0.8401 B(  0-O ,  2-C ) :   0.9108 B(  2-C ,  3-H ) :   0.9332
B(  2-C ,  4-H ) :   0.9389 B(  2-C ,  5-H ) :   0.9393 B(  6-O ,  7-H ) :   0.8374
B(  6-O ,  8-C ) :   0.9120 B(  8-C ,  9-H ) :   0.9386 B(  8-C , 10-H ) :   0.9413
B(  8-C , 11-H ) :   0.9350 B( 12-O , 13-H ) :   0.8418 B( 12-O , 14-C ) :   0.9250
B( 14-C , 15-H ) :   0.9375 B( 14-C , 16-H ) :   0.9392 B( 14-C , 17-H ) :   0.9386

MP2 TOTAL ENERGY:     -346.524629878 Eh
FINAL SINGLE POINT ENERGY      -346.524629877847

DIPOLE MOMENT
-------------
                                X             Y             Z
Electronic contribution:      2.00482       0.49366      -2.81700
Nuclear contribution   :     -3.21486      -0.25688       3.12027
                        -----------------------------------------
Total Dipole Moment    :     -1.21004       0.23678       0.30327
                        -----------------------------------------
Magnitude (a.u.)       :      1.26974
Magnitude (Debye)      :      3.22741

Rotational constants in cm-1:     0.267008     0.009142     0.009072
Rotational constants in MHz :  8004.709551   274.071699   271.977630

                             ****ORCA TERMINATED NORMALLY****
TOTAL RUN TIME: 0 days 0 hours 1 minutes 2 seconds 738 msec
