                         Program Version 4.2.0 -  RELEASE  -
|  1> # 12mecn.remya.etal.2.mol1,3
|  2> ! MP2 def2-TZVP EnGrad TightSCF
|  3>
|  4> %pal
|  5>     nprocs 6
|  6> end
|  7>
|  8> %maxcore 8000
|  9>
| 10> %scf
| 11>     ConvForced true
| 12> end
| 13>
| 14> *xyz 0 1
| 15> C  -4.697980000  -0.249690000   1.746215000
| 16> H  -4.927570000   0.755530000   2.111799000
| 17> H  -3.709180000  -0.561560000   2.093253000
| 18> H  -5.432280000  -0.961520000   2.128066000
| 19> C  -4.714100000  -0.247110000   0.301670000
| 20> N  -4.729750000  -0.234960000  -0.865260000
| 21> C  -5.181310000   2.853865000  -1.626100000
| 22> H  -5.488260000   3.811434000  -2.053310000
| 23> H  -5.857590000   2.068112000  -1.968630000
| 24> H  -4.170750000   2.611402000  -1.966640000
| 25> C  -5.187260000   2.919160000  -0.181450000
| 26> N  -5.181700000   2.970641000   0.983640000
| 27> *
| 28>
| 29>                          ****END OF INPUT****

CARTESIAN COORDINATES (ANGSTROEM)
---------------------------------
  C     -4.697980   -0.249690    1.746215
  H     -4.927570    0.755530    2.111799
  H     -3.709180   -0.561560    2.093253
  H     -5.432280   -0.961520    2.128066
  C     -4.714100   -0.247110    0.301670
  N     -4.729750   -0.234960   -0.865260
  C     -5.181310    2.853865   -1.626100
  H     -5.488260    3.811434   -2.053310
  H     -5.857590    2.068112   -1.968630
  H     -4.170750    2.611402   -1.966640
  C     -5.187260    2.919160   -0.181450
  N     -5.181700    2.970641    0.983640

 Total Charge           Charge          ....    0
 Multiplicity           Mult            ....    1
 Number of Electrons    NEL             ....   44
 Basis Dimension        Dim             ....  222

ORBITAL ENERGIES
----------------

  NO   OCC          E(Eh)            E(eV)
   0   2.0000     -15.570963      -423.7074
   1   2.0000     -15.570309      -423.6896
   2   2.0000     -11.282689      -307.0176
   3   2.0000     -11.282670      -307.0171
   4   2.0000     -11.272161      -306.7311
   5   2.0000     -11.271811      -306.7216
   6   2.0000      -1.218109       -33.1464
   7   2.0000      -1.213274       -33.0149
   8   2.0000      -1.036494       -28.2044
   9   2.0000      -1.033321       -28.1181
  10   2.0000      -0.695129       -18.9154
  11   2.0000      -0.691089       -18.8055
  12   2.0000      -0.631612       -17.1870
  13   2.0000      -0.621755       -16.9188
  14   2.0000      -0.618263       -16.8238
  15   2.0000      -0.616091       -16.7647
  16   2.0000      -0.558908       -15.2087
  17   2.0000      -0.555809       -15.1243
  18   2.0000      -0.463284       -12.6066
  19   2.0000      -0.458326       -12.4717
  20   2.0000      -0.456956       -12.4344
  21   2.0000      -0.452487       -12.3128
  22   0.0000       0.126478         3.4416
  23   0.0000       0.144850         3.9416
  24   0.0000       0.172381         4.6907
  25   0.0000       0.177288         4.8243
  26   0.0000       0.177498         4.8300

MULLIKEN ATOMIC CHARGES
-----------------------
   0 C :   -0.286647
   1 H :    0.205920
   2 H :    0.165988
   3 H :    0.166549
   4 C :   -0.111467
   5 N :   -0.140895
   6 C :   -0.263559
   7 H :    0.171172
   8 H :    0.184921
   9 H :    0.172481
  10 C :   -0.115582
  11 N :   -0.148879
Sum of atomic charges:   -0.0000000

LOEWDIN ATOMIC CHARGES
----------------------
   0 C :   -0.282159
   1 H :    0.157256
   2 H :    0.152394
   3 H :    0.150558
   4 C :   -0.209392
   5 N :    0.034149
   6 C :   -0.284609
   7 H :    0.148644
   8 H :    0.156047
   9 H :    0.156687
  10 C :   -0.208612
  11 N :    0.029036

  Mayer bond orders larger than 0.100000
B(  0-C ,  1-H ) :   0.9014 B(  0-C ,  2-H ) :   0.9152 B(  0-C ,  3-H ) :   0.9166
B(  0-C ,  4-C ) :   0.8997 B(  4-C ,  5-N ) :   2.7899 B(  6-C ,  7-H ) :   0.9104
B(  6-C ,  8-H ) :   0.9102 B(  6-C ,  9-H ) :   0.9140 B(  6-C , 10-C ) :   0.9124
B( 10-C , 11-N ) :   2.7732

MP2 TOTAL ENERGY:     -264.976009472 Eh
FINAL SINGLE POINT ENERGY      -264.976009472423

DIPOLE MOMENT
-------------
                                X             Y             Z
Electronic contribution:     -0.07402       0.18147       0.00131
Nuclear contribution   :      0.09437      -0.25925      -0.01216
                        -----------------------------------------
Total Dipole Moment    :      0.02035      -0.07778      -0.01085
                        -----------------------------------------
Magnitude (a.u.)       :      0.08113
Magnitude (Debye)      :      0.20621

Rotational constants in cm-1:     0.168216     0.070972     0.050866
Rotational constants in MHz :  5042.975385  2127.691357  1524.924217

                             ****ORCA TERMINATED NORMALLY****
TOTAL RUN TIME: 0 days 0 hours 1 minutes 16 seconds 196 msec
