                         Program Version 4.2.0 -  RELEASE  -
|  1> # 12h2o.su.etal.mol1,3,4,5,7,8,9,10
|  2> ! MP2 def2-TZVP EnGrad TightSCF
|  3>
|  4> %pal
|  5>     nprocs 6
|  6> end
|  7>
|  8> %maxcore 8000
|  9>
| 10> %scf
| 11>     ConvForced true
| 12> end
| 13>
| 14> *xyz 0 1
| 15> O  -1.794470000  -0.923410000   2.768350000
| 16> H  -2.338250000  -1.359750000   3.430940000
| 17> H  -0.879480000  -1.303000000   2.865760000
| 18> O  -1.752130000  -0.741530000  -2.896280000
| 19> H  -2.036450000  -0.920500000  -1.984040000
| 20> H  -0.921210000  -1.242140000  -2.984230000
| 21> O  -0.885520000   1.737840000   0.052730000
| 22> H  -1.032320000   2.090180000  -0.841890000
| 23> H  -1.284090000   0.839590000   0.017130000
| 24> O   0.885520000  -1.737840000   0.052730000
| 25> H   1.284090000  -0.839590000   0.017130000
| 26> H   1.032320000  -2.090180000  -0.841890000
| 27> O  -1.737840000  -0.885520000  -0.052730000
| 28> H  -2.090180000  -1.032320000   0.841890000
| 29> H  -0.839590000  -1.284090000  -0.017130000
| 30> O   1.752130000   0.741530000  -2.896280000
| 31> H   2.036450000   0.920500000  -1.984040000
| 32> H   0.921210000   1.242140000  -2.984230000
| 33> O   0.741530000  -1.752130000   2.896280000
| 34> H   0.920500000  -2.036450000   1.984040000
| 35> H   1.242140000  -0.921210000   2.984230000
| 36> O  -0.923410000   1.794470000  -2.768350000
| 37> H  -1.359750000   2.338250000  -3.430940000
| 38> H  -1.303000000   0.879480000  -2.865760000
| 39> *
| 40>
| 41>                          ****END OF INPUT****

CARTESIAN COORDINATES (ANGSTROEM)
---------------------------------
  O     -1.794470   -0.923410    2.768350
  H     -2.338250   -1.359750    3.430940
  H     -0.879480   -1.303000    2.865760
  O     -1.752130   -0.741530   -2.896280
  H     -2.036450   -0.920500   -1.984040
  H     -0.921210   -1.242140   -2.984230
  O     -0.885520    1.737840    0.052730
  H     -1.032320    2.090180   -0.841890
  H     -1.284090    0.839590    0.017130
  O      0.885520   -1.737840    0.052730
  H      1.284090   -0.839590    0.017130
  H      1.032320   -2.090180   -0.841890
  O     -1.737840   -0.885520   -0.052730
  H     -2.090180   -1.032320    0.841890
  H     -0.839590   -1.284090   -0.017130
  O      1.752130    0.741530   -2.896280
  H      2.036450    0.920500   -1.984040
  H      0.921210    1.242140   -2.984230
  O      0.741530   -1.752130    2.896280
  H      0.920500   -2.036450    1.984040
  H      1.242140   -0.921210    2.984230
  O     -0.923410    1.794470   -2.768350
  H     -1.359750    2.338250   -3.430940
  H     -1.303000    0.879480   -2.865760

 Total Charge           Charge          ....    0
 Multiplicity           Mult            ....    1
 Number of Electrons    NEL             ....   80
 Basis Dimension        Dim             ....  344

ORBITAL ENERGIES
----------------

  NO   OCC          E(Eh)            E(eV)
   0   2.0000     -20.638425      -561.6001
   1   2.0000     -20.592722      -560.3565
   2   2.0000     -20.583139      -560.0957
   3   2.0000     -20.560896      -559.4904
   4   2.0000     -20.559140      -559.4426
   5   2.0000     -20.548089      -559.1419
   6   2.0000     -20.546298      -559.0932
   7   2.0000     -20.498846      -557.8020
   8   2.0000      -1.421842       -38.6903
   9   2.0000      -1.381022       -37.5795
  10   2.0000      -1.375203       -37.4212
  11   2.0000      -1.352463       -36.8024
  12   2.0000      -1.344998       -36.5993
  13   2.0000      -1.328746       -36.1570
  14   2.0000      -1.328103       -36.1395
  15   2.0000      -1.282970       -34.9114
  16   2.0000      -0.780504       -21.2386
  17   2.0000      -0.743574       -20.2337
  18   2.0000      -0.736682       -20.0461
  19   2.0000      -0.726687       -19.7742
  20   2.0000      -0.723850       -19.6970
  21   2.0000      -0.714867       -19.4525
  22   2.0000      -0.697594       -18.9825
  23   2.0000      -0.669050       -18.2058
  24   2.0000      -0.664058       -18.0699
  25   2.0000      -0.630784       -17.1645
  26   2.0000      -0.616217       -16.7681
  27   2.0000      -0.607716       -16.5368
  28   2.0000      -0.589111       -16.0305
  29   2.0000      -0.571440       -15.5497
  30   2.0000      -0.570153       -15.5147
  31   2.0000      -0.563475       -15.3329
  32   2.0000      -0.540180       -14.6991
  33   2.0000      -0.525239       -14.2925
  34   2.0000      -0.521230       -14.1834
  35   2.0000      -0.505010       -13.7420
  36   2.0000      -0.496576       -13.5125
  37   2.0000      -0.495412       -13.4808
  38   2.0000      -0.491218       -13.3667
  39   2.0000      -0.449858       -12.2413
  40   0.0000       0.071371         1.9421
  41   0.0000       0.120470         3.2781
  42   0.0000       0.137724         3.7477
  43   0.0000       0.144655         3.9363
  44   0.0000       0.163066         4.4373

MULLIKEN ATOMIC CHARGES
-----------------------
   0 O :   -0.732402
   1 H :    0.337056
   2 H :    0.371956
   3 O :   -0.696903
   4 H :    0.394856
   5 H :    0.341069
   6 O :   -0.744681
   7 H :    0.357023
   8 H :    0.350535
   9 O :   -0.717643
  10 H :    0.370915
  11 H :    0.374987
  12 O :   -0.752203
  13 H :    0.390978
  14 H :    0.345797
  15 O :   -0.712971
  16 H :    0.321873
  17 H :    0.369786
  18 O :   -0.691020
  19 H :    0.384276
  20 H :    0.355916
  21 O :   -0.750475
  22 H :    0.347124
  23 H :    0.384152
Sum of atomic charges:    0.0000000

LOEWDIN ATOMIC CHARGES
----------------------
   0 O :   -0.336941
   1 H :    0.154494
   2 H :    0.144378
   3 O :   -0.273853
   4 H :    0.159721
   5 H :    0.165739
   6 O :   -0.373809
   7 H :    0.141472
   8 H :    0.134623
   9 O :   -0.275576
  10 H :    0.183386
  11 H :    0.179160
  12 O :   -0.303341
  13 H :    0.156770
  14 H :    0.136970
  15 O :   -0.348297
  16 H :    0.153992
  17 H :    0.149774
  18 O :   -0.271983
  19 H :    0.157532
  20 H :    0.175129
  21 O :   -0.313502
  22 H :    0.157606
  23 H :    0.146555

  Mayer bond orders larger than 0.100000
B(  0-O ,  1-H ) :   0.8506 B(  0-O ,  2-H ) :   0.7641 B(  3-O ,  4-H ) :   0.7889
B(  3-O ,  5-H ) :   0.8440 B(  6-O ,  7-H ) :   0.8259 B(  6-O ,  8-H ) :   0.8053
B(  9-O , 10-H ) :   0.8146 B(  9-O , 11-H ) :   0.8240 B( 12-O , 13-H ) :   0.7827
B( 12-O , 14-H ) :   0.7926 B( 15-O , 16-H ) :   0.8596 B( 15-O , 17-H ) :   0.8007
B( 18-O , 19-H ) :   0.8091 B( 18-O , 20-H ) :   0.8382 B( 21-O , 22-H ) :   0.8418
B( 21-O , 23-H ) :   0.7431

MP2 TOTAL ENERGY:     -610.583121429 Eh
FINAL SINGLE POINT ENERGY      -610.583121429159

DIPOLE MOMENT
-------------
                                X             Y             Z
Electronic contribution:     -0.00905      -0.39860       0.16245
Nuclear contribution   :      0.64988      -0.98710      -0.08817
                        -----------------------------------------
Total Dipole Moment    :      0.64083      -1.38571       0.07428
                        -----------------------------------------
Magnitude (a.u.)       :      1.52852
Magnitude (Debye)      :      3.88518

Rotational constants in cm-1:     0.041153     0.017388     0.015733
Rotational constants in MHz :  1233.743044   521.271120   471.649773

                             ****ORCA TERMINATED NORMALLY****
TOTAL RUN TIME: 0 days 0 hours 2 minutes 51 seconds 392 msec
