                         Program Version 4.2.0 -  RELEASE  -
|  1> # 12h2o.su.etal.mol0,1,5,8
|  2> ! MP2 def2-TZVP EnGrad TightSCF
|  3>
|  4> %pal
|  5>     nprocs 6
|  6> end
|  7>
|  8> %maxcore 8000
|  9>
| 10> %scf
| 11>     ConvForced true
| 12> end
| 13>
| 14> *xyz 0 1
| 15> O   1.794470000   0.923410000   2.768350000
| 16> H   2.338250000   1.359750000   3.430940000
| 17> H   0.879480000   1.303000000   2.865760000
| 18> O  -1.794470000  -0.923410000   2.768350000
| 19> H  -2.338250000  -1.359750000   3.430940000
| 20> H  -0.879480000  -1.303000000   2.865760000
| 21> O   0.885520000  -1.737840000   0.052730000
| 22> H   1.284090000  -0.839590000   0.017130000
| 23> H   1.032320000  -2.090180000  -0.841890000
| 24> O   1.752130000   0.741530000  -2.896280000
| 25> H   2.036450000   0.920500000  -1.984040000
| 26> H   0.921210000   1.242140000  -2.984230000
| 27> *
| 28>
| 29>                          ****END OF INPUT****

CARTESIAN COORDINATES (ANGSTROEM)
---------------------------------
  O      1.794470    0.923410    2.768350
  H      2.338250    1.359750    3.430940
  H      0.879480    1.303000    2.865760
  O     -1.794470   -0.923410    2.768350
  H     -2.338250   -1.359750    3.430940
  H     -0.879480   -1.303000    2.865760
  O      0.885520   -1.737840    0.052730
  H      1.284090   -0.839590    0.017130
  H      1.032320   -2.090180   -0.841890
  O      1.752130    0.741530   -2.896280
  H      2.036450    0.920500   -1.984040
  H      0.921210    1.242140   -2.984230

 Total Charge           Charge          ....    0
 Multiplicity           Mult            ....    1
 Number of Electrons    NEL             ....   40
 Basis Dimension        Dim             ....  172

ORBITAL ENERGIES
----------------

  NO   OCC          E(Eh)            E(eV)
   0   2.0000     -20.569916      -559.7359
   1   2.0000     -20.569805      -559.7329
   2   2.0000     -20.553299      -559.2837
   3   2.0000     -20.552947      -559.2741
   4   2.0000      -1.348963       -36.7071
   5   2.0000      -1.345091       -36.6018
   6   2.0000      -1.328925       -36.1619
   7   2.0000      -1.328546       -36.1516
   8   2.0000      -0.713448       -19.4139
   9   2.0000      -0.711829       -19.3699
  10   2.0000      -0.696693       -18.9580
  11   2.0000      -0.690740       -18.7960
  12   2.0000      -0.586374       -15.9560
  13   2.0000      -0.581754       -15.8303
  14   2.0000      -0.568947       -15.4818
  15   2.0000      -0.565242       -15.3810
  16   2.0000      -0.513579       -13.9752
  17   2.0000      -0.513293       -13.9674
  18   2.0000      -0.497114       -13.5272
  19   2.0000      -0.495155       -13.4739
  20   0.0000       0.098297         2.6748
  21   0.0000       0.121646         3.3101
  22   0.0000       0.146687         3.9916
  23   0.0000       0.168102         4.5743
  24   0.0000       0.188003         5.1158

MULLIKEN ATOMIC CHARGES
-----------------------
   0 O :   -0.691583
   1 H :    0.341108
   2 H :    0.351907
   3 O :   -0.691717
   4 H :    0.334493
   5 H :    0.356424
   6 O :   -0.676255
   7 H :    0.333664
   8 H :    0.339870
   9 O :   -0.672266
  10 H :    0.332065
  11 H :    0.342292
Sum of atomic charges:   -0.0000000

LOEWDIN ATOMIC CHARGES
----------------------
   0 O :   -0.341193
   1 H :    0.159240
   2 H :    0.183589
   3 O :   -0.341963
   4 H :    0.156149
   5 H :    0.184563
   6 O :   -0.335586
   7 H :    0.167675
   8 H :    0.165739
   9 O :   -0.328914
  10 H :    0.161486
  11 H :    0.169213

  Mayer bond orders larger than 0.100000
B(  0-O ,  1-H ) :   0.8513 B(  0-O ,  2-H ) :   0.8372 B(  3-O ,  4-H ) :   0.8552
B(  3-O ,  5-H ) :   0.8338 B(  6-O ,  7-H ) :   0.8498 B(  6-O ,  8-H ) :   0.8506
B(  9-O , 10-H ) :   0.8542 B(  9-O , 11-H ) :   0.8498

MP2 TOTAL ENERGY:     -305.255760753 Eh
FINAL SINGLE POINT ENERGY      -305.255760753072

DIPOLE MOMENT
-------------
                                X             Y             Z
Electronic contribution:      0.00772      -0.16669      -0.20230
Nuclear contribution   :     -0.00102       1.02005       1.17702
                        -----------------------------------------
Total Dipole Moment    :      0.00670       0.85335       0.97472
                        -----------------------------------------
Magnitude (a.u.)       :      1.29550
Magnitude (Debye)      :      3.29291

Rotational constants in cm-1:     0.088020     0.033783     0.027867
Rotational constants in MHz :  2638.771134  1012.775399   835.432657

                             ****ORCA TERMINATED NORMALLY****
TOTAL RUN TIME: 0 days 0 hours 0 minutes 13 seconds 360 msec
