                         Program Version 4.2.0 -  RELEASE  -
|  1> # 12h2o.su.etal.mol0,2,3,4,6
|  2> ! MP2 def2-TZVP EnGrad TightSCF
|  3>
|  4> %pal
|  5>     nprocs 6
|  6> end
|  7>
|  8> %maxcore 8000
|  9>
| 10> %scf
| 11>     ConvForced true
| 12> end
| 13>
| 14> *xyz 0 1
| 15> O   1.794470000   0.923410000   2.768350000
| 16> H   2.338250000   1.359750000   3.430940000
| 17> H   0.879480000   1.303000000   2.865760000
| 18> O   0.923410000  -1.794470000  -2.768350000
| 19> H   1.359750000  -2.338250000  -3.430940000
| 20> H   1.303000000  -0.879480000  -2.865760000
| 21> O  -1.752130000  -0.741530000  -2.896280000
| 22> H  -2.036450000  -0.920500000  -1.984040000
| 23> H  -0.921210000  -1.242140000  -2.984230000
| 24> O  -0.885520000   1.737840000   0.052730000
| 25> H  -1.032320000   2.090180000  -0.841890000
| 26> H  -1.284090000   0.839590000   0.017130000
| 27> O   1.737840000   0.885520000  -0.052730000
| 28> H   2.090180000   1.032320000   0.841890000
| 29> H   0.839590000   1.284090000  -0.017130000
| 30> *
| 31>
| 32>                          ****END OF INPUT****

CARTESIAN COORDINATES (ANGSTROEM)
---------------------------------
  O      1.794470    0.923410    2.768350
  H      2.338250    1.359750    3.430940
  H      0.879480    1.303000    2.865760
  O      0.923410   -1.794470   -2.768350
  H      1.359750   -2.338250   -3.430940
  H      1.303000   -0.879480   -2.865760
  O     -1.752130   -0.741530   -2.896280
  H     -2.036450   -0.920500   -1.984040
  H     -0.921210   -1.242140   -2.984230
  O     -0.885520    1.737840    0.052730
  H     -1.032320    2.090180   -0.841890
  H     -1.284090    0.839590    0.017130
  O      1.737840    0.885520   -0.052730
  H      2.090180    1.032320    0.841890
  H      0.839590    1.284090   -0.017130

 Total Charge           Charge          ....    0
 Multiplicity           Mult            ....    1
 Number of Electrons    NEL             ....   50
 Basis Dimension        Dim             ....  215

ORBITAL ENERGIES
----------------

  NO   OCC          E(Eh)            E(eV)
   0   2.0000     -20.591701      -560.3287
   1   2.0000     -20.579243      -559.9897
   2   2.0000     -20.577645      -559.9462
   3   2.0000     -20.541287      -558.9568
   4   2.0000     -20.499946      -557.8319
   5   2.0000      -1.372213       -37.3398
   6   2.0000      -1.357044       -36.9270
   7   2.0000      -1.355598       -36.8877
   8   2.0000      -1.322954       -35.9994
   9   2.0000      -1.284479       -34.9524
  10   2.0000      -0.730813       -19.8864
  11   2.0000      -0.723859       -19.6972
  12   2.0000      -0.722794       -19.6682
  13   2.0000      -0.690927       -18.8011
  14   2.0000      -0.669670       -18.2226
  15   2.0000      -0.613696       -16.6995
  16   2.0000      -0.598103       -16.2752
  17   2.0000      -0.593644       -16.1539
  18   2.0000      -0.560686       -15.2570
  19   2.0000      -0.552555       -15.0358
  20   2.0000      -0.521465       -14.1898
  21   2.0000      -0.517610       -14.0849
  22   2.0000      -0.501178       -13.6378
  23   2.0000      -0.488398       -13.2900
  24   2.0000      -0.450841       -12.2680
  25   0.0000       0.096619         2.6291
  26   0.0000       0.122896         3.3442
  27   0.0000       0.135518         3.6876
  28   0.0000       0.169076         4.6008
  29   0.0000       0.189831         5.1656

MULLIKEN ATOMIC CHARGES
-----------------------
   0 O :   -0.691304
   1 H :    0.345850
   2 H :    0.354623
   3 O :   -0.696591
   4 H :    0.348715
   5 H :    0.370610
   6 O :   -0.702189
   7 H :    0.318217
   8 H :    0.363280
   9 O :   -0.684862
  10 H :    0.364314
  11 H :    0.350718
  12 O :   -0.736462
  13 H :    0.360113
  14 H :    0.334967
Sum of atomic charges:   -0.0000000

LOEWDIN ATOMIC CHARGES
----------------------
   0 O :   -0.310308
   1 H :    0.160394
   2 H :    0.184865
   3 O :   -0.310130
   4 H :    0.162149
   5 H :    0.191869
   6 O :   -0.346101
   7 H :    0.153699
   8 H :    0.149689
   9 O :   -0.292457
  10 H :    0.175757
  11 H :    0.175554
  12 O :   -0.373273
  13 H :    0.144645
  14 H :    0.133647

  Mayer bond orders larger than 0.100000
B(  0-O ,  1-H ) :   0.8451 B(  0-O ,  2-H ) :   0.8343 B(  3-O ,  4-H ) :   0.8436
B(  3-O ,  5-H ) :   0.8218 B(  6-O ,  7-H ) :   0.8630 B(  6-O ,  8-H ) :   0.8086
B(  9-O , 10-H ) :   0.8331 B(  9-O , 11-H ) :   0.8371 B( 12-O , 13-H ) :   0.8280
B( 12-O , 14-H ) :   0.8153

MP2 TOTAL ENERGY:     -381.588063739 Eh
FINAL SINGLE POINT ENERGY      -381.588063738856

DIPOLE MOMENT
-------------
                                X             Y             Z
Electronic contribution:      0.04586      -0.08678       0.01351
Nuclear contribution   :     -0.08320       0.42202       0.68611
                        -----------------------------------------
Total Dipole Moment    :     -0.03735       0.33524       0.69962
                        -----------------------------------------
Magnitude (a.u.)       :      0.77669
Magnitude (Debye)      :      1.97420

Rotational constants in cm-1:     0.091909     0.028886     0.023510
Rotational constants in MHz :  2755.349864   865.981689   704.805351

                             ****ORCA TERMINATED NORMALLY****
TOTAL RUN TIME: 0 days 0 hours 0 minutes 32 seconds 382 msec
