                         Program Version 4.2.0 -  RELEASE  -
|  1> # 12h2o.su.etal.mol0,2,3,6,7,8,10,11
|  2> ! MP2 def2-TZVP EnGrad TightSCF
|  3>
|  4> %pal
|  5>     nprocs 6
|  6> end
|  7>
|  8> %maxcore 8000
|  9>
| 10> %scf
| 11>     ConvForced true
| 12> end
| 13>
| 14> *xyz 0 1
| 15> O   1.794470000   0.923410000   2.768350000
| 16> H   2.338250000   1.359750000   3.430940000
| 17> H   0.879480000   1.303000000   2.865760000
| 18> O   0.923410000  -1.794470000  -2.768350000
| 19> H   1.359750000  -2.338250000  -3.430940000
| 20> H   1.303000000  -0.879480000  -2.865760000
| 21> O  -1.752130000  -0.741530000  -2.896280000
| 22> H  -2.036450000  -0.920500000  -1.984040000
| 23> H  -0.921210000  -1.242140000  -2.984230000
| 24> O   1.737840000   0.885520000  -0.052730000
| 25> H   2.090180000   1.032320000   0.841890000
| 26> H   0.839590000   1.284090000  -0.017130000
| 27> O  -1.737840000  -0.885520000  -0.052730000
| 28> H  -2.090180000  -1.032320000   0.841890000
| 29> H  -0.839590000  -1.284090000  -0.017130000
| 30> O   1.752130000   0.741530000  -2.896280000
| 31> H   2.036450000   0.920500000  -1.984040000
| 32> H   0.921210000   1.242140000  -2.984230000
| 33> O  -0.923410000   1.794470000  -2.768350000
| 34> H  -1.359750000   2.338250000  -3.430940000
| 35> H  -1.303000000   0.879480000  -2.865760000
| 36> O  -0.741530000   1.752130000   2.896280000
| 37> H  -0.920500000   2.036450000   1.984040000
| 38> H  -1.242140000   0.921210000   2.984230000
| 39> *
| 40>
| 41>                          ****END OF INPUT****

CARTESIAN COORDINATES (ANGSTROEM)
---------------------------------
  O      1.794470    0.923410    2.768350
  H      2.338250    1.359750    3.430940
  H      0.879480    1.303000    2.865760
  O      0.923410   -1.794470   -2.768350
  H      1.359750   -2.338250   -3.430940
  H      1.303000   -0.879480   -2.865760
  O     -1.752130   -0.741530   -2.896280
  H     -2.036450   -0.920500   -1.984040
  H     -0.921210   -1.242140   -2.984230
  O      1.737840    0.885520   -0.052730
  H      2.090180    1.032320    0.841890
  H      0.839590    1.284090   -0.017130
  O     -1.737840   -0.885520   -0.052730
  H     -2.090180   -1.032320    0.841890
  H     -0.839590   -1.284090   -0.017130
  O      1.752130    0.741530   -2.896280
  H      2.036450    0.920500   -1.984040
  H      0.921210    1.242140   -2.984230
  O     -0.923410    1.794470   -2.768350
  H     -1.359750    2.338250   -3.430940
  H     -1.303000    0.879480   -2.865760
  O     -0.741530    1.752130    2.896280
  H     -0.920500    2.036450    1.984040
  H     -1.242140    0.921210    2.984230

 Total Charge           Charge          ....    0
 Multiplicity           Mult            ....    1
 Number of Electrons    NEL             ....   80
 Basis Dimension        Dim             ....  344

ORBITAL ENERGIES
----------------

  NO   OCC          E(Eh)            E(eV)
   0   2.0000     -20.621220      -561.1319
   1   2.0000     -20.596841      -560.4685
   2   2.0000     -20.557469      -559.3972
   3   2.0000     -20.554081      -559.3050
   4   2.0000     -20.538595      -558.8836
   5   2.0000     -20.535134      -558.7894
   6   2.0000     -20.530105      -558.6526
   7   2.0000     -20.529438      -558.6344
   8   2.0000      -1.406641       -38.2766
   9   2.0000      -1.375308       -37.4240
  10   2.0000      -1.345204       -36.6049
  11   2.0000      -1.338409       -36.4200
  12   2.0000      -1.333065       -36.2745
  13   2.0000      -1.323788       -36.0221
  14   2.0000      -1.316364       -35.8201
  15   2.0000      -1.304236       -35.4901
  16   2.0000      -0.763742       -20.7825
  17   2.0000      -0.737357       -20.0645
  18   2.0000      -0.728494       -19.8233
  19   2.0000      -0.705600       -19.2004
  20   2.0000      -0.701540       -19.0899
  21   2.0000      -0.700651       -19.0657
  22   2.0000      -0.690062       -18.7775
  23   2.0000      -0.682376       -18.5684
  24   2.0000      -0.644508       -17.5379
  25   2.0000      -0.621279       -16.9059
  26   2.0000      -0.601828       -16.3766
  27   2.0000      -0.592926       -16.1343
  28   2.0000      -0.578125       -15.7316
  29   2.0000      -0.566993       -15.4287
  30   2.0000      -0.557447       -15.1689
  31   2.0000      -0.545069       -14.8321
  32   2.0000      -0.540429       -14.7058
  33   2.0000      -0.531160       -14.4536
  34   2.0000      -0.505802       -13.7636
  35   2.0000      -0.500022       -13.6063
  36   2.0000      -0.485034       -13.1984
  37   2.0000      -0.484082       -13.1725
  38   2.0000      -0.479593       -13.0504
  39   2.0000      -0.474965       -12.9245
  40   0.0000       0.068296         1.8584
  41   0.0000       0.126371         3.4387
  42   0.0000       0.139617         3.7992
  43   0.0000       0.151644         4.1264
  44   0.0000       0.167607         4.5608

MULLIKEN ATOMIC CHARGES
-----------------------
   0 O :   -0.735953
   1 H :    0.341389
   2 H :    0.367974
   3 O :   -0.749007
   4 H :    0.336215
   5 H :    0.385486
   6 O :   -0.724468
   7 H :    0.378192
   8 H :    0.367390
   9 O :   -0.714628
  10 H :    0.378856
  11 H :    0.326164
  12 O :   -0.704385
  13 H :    0.337167
  14 H :    0.373018
  15 O :   -0.729084
  16 H :    0.384817
  17 H :    0.364060
  18 O :   -0.749320
  19 H :    0.336543
  20 H :    0.382645
  21 O :   -0.672793
  22 H :    0.363203
  23 H :    0.356521
Sum of atomic charges:   -0.0000000

LOEWDIN ATOMIC CHARGES
----------------------
   0 O :   -0.339332
   1 H :    0.156068
   2 H :    0.142709
   3 O :   -0.345082
   4 H :    0.153289
   5 H :    0.146167
   6 O :   -0.289487
   7 H :    0.154846
   8 H :    0.149751
   9 O :   -0.325621
  10 H :    0.154315
  11 H :    0.161629
  12 O :   -0.318202
  13 H :    0.163945
  14 H :    0.184526
  15 O :   -0.291942
  16 H :    0.156095
  17 H :    0.148077
  18 O :   -0.346018
  19 H :    0.153270
  20 H :    0.145429
  21 O :   -0.264366
  22 H :    0.174870
  23 H :    0.175065

  Mayer bond orders larger than 0.100000
B(  0-O ,  1-H ) :   0.8483 B(  0-O ,  2-H ) :   0.7721 B(  3-O ,  4-H ) :   0.8511
B(  3-O ,  5-H ) :   0.7374 B(  5-H , 15-O ) :   0.1196 B(  6-O ,  7-H ) :   0.8136
B(  6-O ,  8-H ) :   0.7890 B(  6-O , 20-H ) :   0.1181 B(  9-O , 10-H ) :   0.7976
B(  9-O , 11-H ) :   0.8474 B( 12-O , 13-H ) :   0.8485 B( 12-O , 14-H ) :   0.8193
B( 15-O , 16-H ) :   0.8025 B( 15-O , 17-H ) :   0.7958 B( 18-O , 19-H ) :   0.8509
B( 18-O , 20-H ) :   0.7406 B( 21-O , 22-H ) :   0.8328 B( 21-O , 23-H ) :   0.8366

MP2 TOTAL ENERGY:     -610.585410854 Eh
FINAL SINGLE POINT ENERGY      -610.585410854392

DIPOLE MOMENT
-------------
                                X             Y             Z
Electronic contribution:     -0.07211       0.01858       0.28738
Nuclear contribution   :     -0.87464       0.22418       1.60207
                        -----------------------------------------
Total Dipole Moment    :     -0.94675       0.24276       1.88945
                        -----------------------------------------
Magnitude (a.u.)       :      2.12728
Magnitude (Debye)      :      5.40710

Rotational constants in cm-1:     0.034894     0.016400     0.014443
Rotational constants in MHz :  1046.102029   491.645483   433.001403

                             ****ORCA TERMINATED NORMALLY****
TOTAL RUN TIME: 0 days 0 hours 2 minutes 55 seconds 300 msec
