                         Program Version 3.0.3 - RELEASE   -
|  1> ! wB97X-D3 Def2-TZVP def2-TZVP/J RIJCOSX TightSCF Grid4
|  2>
|  3> %pal nprocs 12 end
|  4>
|  5> %scf
|  6>         maxiter 400
|  7> end
|  8>
|  9> * xyz  0  1
| 10> O  1.262170	0.248030	0.965932
| 11> H  0.501233	0.123737	0.369476
| 12> H  1.965632	0.510107	0.357762
| 13> O  -1.008031	-0.071195	-0.738221
| 14> H  -1.146448	-0.981140	-1.035673
| 15> H  -1.736762	0.089708	-0.121490
| 16> **                         ****END OF INPUT****

CARTESIAN COORDINATES (ANGSTROEM)
---------------------------------
  O      1.262170    0.248030    0.965932
  H      0.501233    0.123737    0.369476
  H      1.965632    0.510107    0.357762
  O     -1.008031   -0.071195   -0.738221
  H     -1.146448   -0.981140   -1.035673
  H     -1.736762    0.089708   -0.121490

 Total Charge           Charge          ....    0
 Multiplicity           Mult            ....    1
 Number of Electrons    NEL             ....   20
 Basis Dimension        Dim             ....   86

ORBITAL ENERGIES
----------------

  NO   OCC          E(Eh)            E(eV)
   0   2.0000     -19.265002      -524.2273
   1   2.0000     -19.197658      -522.3948
   2   2.0000      -1.157395       -31.4943
   3   2.0000      -1.091226       -29.6938
   4   2.0000      -0.659588       -17.9483
   5   2.0000      -0.600052       -16.3282
   6   2.0000      -0.525899       -14.3104
   7   2.0000      -0.468297       -12.7430
   8   2.0000      -0.437162       -11.8958
   9   2.0000      -0.383814       -10.4441
  10   0.0000       0.087487         2.3807
  11   0.0000       0.152267         4.1434
  12   0.0000       0.164574         4.4783
  13   0.0000       0.279505         7.6057
  14   0.0000       0.411290        11.1918

MULLIKEN ATOMIC CHARGES
-----------------------
   0 O :   -0.674434
   1 H :    0.327502
   2 H :    0.317036
   3 O :   -0.665633
   4 H :    0.345675
   5 H :    0.349853
Sum of atomic charges:    0.0000000

LOEWDIN ATOMIC CHARGES
----------------------
   0 O :   -0.340056
   1 H :    0.135132
   2 H :    0.151349
   3 O :   -0.280404
   4 H :    0.165797
   5 H :    0.168183

  Mayer bond orders larger than 0.1
B(  0-O ,  1-H ) :   0.8722 B(  0-O ,  2-H ) :   0.9125 B(  3-O ,  4-H ) :   0.8894
B(  3-O ,  5-H ) :   0.8872

Dispersion correction           -0.000535708
FINAL SINGLE POINT ENERGY      -152.886542905000

DIPOLE MOMENT
-------------
                                X             Y             Z
Electronic contribution:     -0.08178       0.04698      -0.00381
Nuclear contribution   :     -0.76962      -0.50879      -0.73693
                        -----------------------------------------
Total Dipole Moment    :     -0.85140      -0.46181      -0.74074
                        -----------------------------------------
Magnitude (a.u.)       :      1.21936
Magnitude (Debye)      :      3.09938

                             ****ORCA TERMINATED NORMALLY****
TOTAL RUN TIME: 0 days 0 hours 0 minutes 48 seconds 685 msec
