                         Program Version 3.0.3 - RELEASE   -
|  1> ! B3LYP Def2-TZVP def2-TZVP/J RIJCOSX TightSCF Grid4 D3BJ
|  2>
|  3> %pal nprocs 12 end
|  4>
|  5> %scf
|  6>         maxiter 400
|  7> end
|  8>
|  9> * xyz  0  1
| 10> O  1.152646	0.055937	0.849348
| 11> H  0.558789	0.047918	0.062003
| 12> H  1.816728	0.726111	0.605901
| 13> O  -1.068887	-0.096147	-0.886074
| 14> H  -1.157299	-1.062779	-0.772597
| 15> H  -1.464183	0.248207	-0.060796
| 16> **                         ****END OF INPUT****

CARTESIAN COORDINATES (ANGSTROEM)
---------------------------------
  O      1.152646    0.055937    0.849348
  H      0.558789    0.047918    0.062003
  H      1.816728    0.726111    0.605901
  O     -1.068887   -0.096147   -0.886074
  H     -1.157299   -1.062779   -0.772597
  H     -1.464183    0.248207   -0.060796

 Total Charge           Charge          ....    0
 Multiplicity           Mult            ....    1
 Number of Electrons    NEL             ....   20
 Basis Dimension        Dim             ....   86

ORBITAL ENERGIES
----------------

  NO   OCC          E(Eh)            E(eV)
   0   2.0000     -19.157942      -521.3141
   1   2.0000     -19.104177      -519.8511
   2   2.0000      -1.037996       -28.2453
   3   2.0000      -0.983961       -26.7749
   4   2.0000      -0.549287       -14.9469
   5   2.0000      -0.504611       -13.7312
   6   2.0000      -0.422457       -11.4956
   7   2.0000      -0.377900       -10.2832
   8   2.0000      -0.337283        -9.1780
   9   2.0000      -0.294426        -8.0117
  10   0.0000      -0.000961        -0.0262
  11   0.0000       0.054245         1.4761
  12   0.0000       0.078995         2.1496
  13   0.0000       0.172251         4.6872
  14   0.0000       0.320616         8.7244

MULLIKEN ATOMIC CHARGES
-----------------------
   0 O :   -0.663690
   1 H :    0.314533
   2 H :    0.308093
   3 O :   -0.632353
   4 H :    0.337413
   5 H :    0.336003
Sum of atomic charges:   -0.0000000

LOEWDIN ATOMIC CHARGES
----------------------
   0 O :   -0.352077
   1 H :    0.141127
   2 H :    0.156896
   3 O :   -0.287592
   4 H :    0.171568
   5 H :    0.170077

  Mayer bond orders larger than 0.1
B(  0-O ,  1-H ) :   0.8564 B(  0-O ,  2-H ) :   0.9134 B(  3-O ,  4-H ) :   0.8937
B(  3-O ,  5-H ) :   0.8915

Dispersion correction           -0.002337088
FINAL SINGLE POINT ENERGY      -152.861077554308

DIPOLE MOMENT
-------------
                                X             Y             Z
Electronic contribution:     -0.12329      -0.03340      -0.10804
Nuclear contribution   :     -0.34417       0.03319      -0.07661
                        -----------------------------------------
Total Dipole Moment    :     -0.46746      -0.00021      -0.18465
                        -----------------------------------------
Magnitude (a.u.)       :      0.50261
Magnitude (Debye)      :      1.27752

                             ****ORCA TERMINATED NORMALLY****
TOTAL RUN TIME: 0 days 0 hours 0 minutes 48 seconds 519 msec
