                         Program Version 3.0.3 - RELEASE   -
|  1> ! wB97X-D3 Def2-TZVP def2-TZVP/J RIJCOSX TightSCF Grid4
|  2>
|  3> %pal nprocs 12 end
|  4>
|  5> %scf
|  6>         maxiter 400
|  7> end
|  8>
|  9> * xyz  0  1
| 10> O  1.152646	0.055937	0.849348
| 11> H  0.558789	0.047918	0.062003
| 12> H  1.816728	0.726111	0.605901
| 13> O  -1.068887	-0.096147	-0.886074
| 14> H  -1.157299	-1.062779	-0.772597
| 15> H  -1.464183	0.248207	-0.060796
| 16> **                         ****END OF INPUT****

CARTESIAN COORDINATES (ANGSTROEM)
---------------------------------
  O      1.152646    0.055937    0.849348
  H      0.558789    0.047918    0.062003
  H      1.816728    0.726111    0.605901
  O     -1.068887   -0.096147   -0.886074
  H     -1.157299   -1.062779   -0.772597
  H     -1.464183    0.248207   -0.060796

 Total Charge           Charge          ....    0
 Multiplicity           Mult            ....    1
 Number of Electrons    NEL             ....   20
 Basis Dimension        Dim             ....   86

ORBITAL ENERGIES
----------------

  NO   OCC          E(Eh)            E(eV)
   0   2.0000     -19.263820      -524.1952
   1   2.0000     -19.211431      -522.7696
   2   2.0000      -1.152085       -31.3498
   3   2.0000      -1.099007       -29.9055
   4   2.0000      -0.649351       -17.6698
   5   2.0000      -0.606519       -16.5042
   6   2.0000      -0.522791       -14.2259
   7   2.0000      -0.479607       -13.0508
   8   2.0000      -0.435435       -11.8488
   9   2.0000      -0.395165       -10.7530
  10   0.0000       0.090110         2.4520
  11   0.0000       0.144807         3.9404
  12   0.0000       0.168754         4.5920
  13   0.0000       0.260986         7.1018
  14   0.0000       0.415679        11.3112

MULLIKEN ATOMIC CHARGES
-----------------------
   0 O :   -0.676340
   1 H :    0.316700
   2 H :    0.321434
   3 O :   -0.658997
   4 H :    0.349541
   5 H :    0.347662
Sum of atomic charges:   -0.0000000

LOEWDIN ATOMIC CHARGES
----------------------
   0 O :   -0.351468
   1 H :    0.140847
   2 H :    0.158167
   3 O :   -0.290845
   4 H :    0.172239
   5 H :    0.171059

  Mayer bond orders larger than 0.1
B(  0-O ,  1-H ) :   0.8604 B(  0-O ,  2-H ) :   0.9079 B(  3-O ,  4-H ) :   0.8874
B(  3-O ,  5-H ) :   0.8862

Dispersion correction           -0.000556843
FINAL SINGLE POINT ENERGY      -152.884761557643

DIPOLE MOMENT
-------------
                                X             Y             Z
Electronic contribution:     -0.11826      -0.03131      -0.10177
Nuclear contribution   :     -0.34417       0.03319      -0.07661
                        -----------------------------------------
Total Dipole Moment    :     -0.46242       0.00189      -0.17837
                        -----------------------------------------
Magnitude (a.u.)       :      0.49564
Magnitude (Debye)      :      1.25981

                             ****ORCA TERMINATED NORMALLY****
TOTAL RUN TIME: 0 days 0 hours 0 minutes 48 seconds 586 msec
