                         Program Version 3.0.3 - RELEASE   -
|  1> ! BP86 Def2-SVP TightSCF Opt D3BJ
|  2>
|  3> %pal nprocs 12 end
|  4>
|  5> %scf
|  6>         maxiter 800
|  7> end
|  8>
|  9> * xyz  0  1
| 10>   O     -0.180384    0.762615   -1.642601
| 11>   H      0.247167   -0.078166   -1.479749
| 12>   H     -0.796274    0.584951   -2.353479
| 13>   O     -0.605612    1.714052    0.854336
| 14>   H     -0.547640    1.306417   -0.009785
| 15>   H     -0.515656    2.651653    0.683910
| 16>   O      0.929260   -1.634735   -0.959238
| 17>   H      1.871177   -1.804965   -0.952443
| 18>   H      0.665463   -1.708324   -0.042053
| 19>   O     -0.112940   -0.857326    1.807599
| 20>   H     -0.314458    0.015397    1.469996
| 21>   H     -0.656660   -0.943162    2.590691
| 22> **                         ****END OF INPUT****
 Total Charge           Charge          ....    0
 Multiplicity           Mult            ....    1
 Number of Electrons    NEL             ....   40
 Basis Dimension        Dim             ....   96

ORBITAL ENERGIES
----------------

  NO   OCC          E(Eh)            E(eV)
   0   2.0000     -18.781691      -511.0758
   1   2.0000     -18.761169      -510.5174
   2   2.0000     -18.745846      -510.1004
   3   2.0000     -18.741634      -509.9858
   4   2.0000      -0.920284       -25.0422
   5   2.0000      -0.900937       -24.5157
   6   2.0000      -0.887012       -24.1368
   7   2.0000      -0.875604       -23.8264
   8   2.0000      -0.486351       -13.2343
   9   2.0000      -0.473238       -12.8775
  10   2.0000      -0.464911       -12.6509
  11   2.0000      -0.438854       -11.9418
  12   2.0000      -0.358505        -9.7554
  13   2.0000      -0.328558        -8.9405
  14   2.0000      -0.313498        -8.5307
  15   2.0000      -0.285507        -7.7690
  16   2.0000      -0.261142        -7.1060
  17   2.0000      -0.245422        -6.6783
  18   2.0000      -0.229427        -6.2430
  19   2.0000      -0.222584        -6.0568
  20   0.0000       0.022612         0.6153
  21   0.0000       0.057983         1.5778
  22   0.0000       0.065374         1.7789
  23   0.0000       0.085798         2.3347
  24   0.0000       0.154058         4.1921

MULLIKEN ATOMIC CHARGES
-----------------------
   0 O :   -0.271434
   1 H :    0.120216
   2 H :    0.157953
   3 O :   -0.286358
   4 H :    0.106709
   5 H :    0.150771
   6 O :   -0.264341
   7 H :    0.165525
   8 H :    0.149377
   9 O :   -0.297314
  10 H :    0.115954
  11 H :    0.152943
Sum of atomic charges:   -0.0000000

LOEWDIN ATOMIC CHARGES
----------------------
   0 O :   -0.089378
   1 H :    0.018748
   2 H :    0.074719
   3 O :   -0.125788
   4 H :    0.012378
   5 H :    0.074136
   6 O :   -0.077021
   7 H :    0.081280
   8 H :    0.057390
   9 O :   -0.135117
  10 H :    0.034758
  11 H :    0.073896

  Mayer bond orders larger than 0.1
B(  0-O ,  1-H ) :   0.9208 B(  0-O ,  2-H ) :   0.9973 B(  0-O ,  4-H ) :   0.1998
B(  1-H ,  6-O ) :   0.1911 B(  3-O ,  4-H ) :   0.9173 B(  3-O ,  5-H ) :   0.9934
B(  3-O , 10-H ) :   0.1492 B(  6-O ,  7-H ) :   0.9964 B(  6-O ,  8-H ) :   0.9550
B(  8-H ,  9-O ) :   0.1110 B(  9-O , 10-H ) :   0.9482 B(  9-O , 11-H ) :   0.9985

Dispersion correction           -0.006512632
FINAL SINGLE POINT ENERGY      -305.500606758185
Dispersion correction            ...
Dispersion correction           -0.006526677
FINAL SINGLE POINT ENERGY      -305.506933092812
Dispersion correction            ...
Dispersion correction           -0.006664341
FINAL SINGLE POINT ENERGY      -305.509369705308
Dispersion correction            ...
FINAL SINGLE POINT ENERGY      -305.511631522133
FINAL SINGLE POINT ENERGY      -305.513643682736
FINAL SINGLE POINT ENERGY      -305.515288907795
FINAL SINGLE POINT ENERGY      -305.516343758993
FINAL SINGLE POINT ENERGY      -305.516818125752
FINAL SINGLE POINT ENERGY      -305.517463362726
FINAL SINGLE POINT ENERGY      -305.518294772715
FINAL SINGLE POINT ENERGY      -305.524632889446
FINAL SINGLE POINT ENERGY      -305.524635122915
FINAL SINGLE POINT ENERGY      -305.524638070662
FINAL SINGLE POINT ENERGY      -305.524643980808
FINAL SINGLE POINT ENERGY      -305.524655915931
FINAL SINGLE POINT ENERGY      -305.524676655473
FINAL SINGLE POINT ENERGY      -305.524704761673
Dispersion correction           -0.007323484
FINAL SINGLE POINT ENERGY      -305.524731695565
Dispersion correction            ...
Dispersion correction           -0.007330217
FINAL SINGLE POINT ENERGY      -305.524745907459
Dispersion correction            ...

CARTESIAN COORDINATES (ANGSTROEM)
---------------------------------
  O     -0.105094    0.771243   -1.716675
  H      0.271843   -0.129446   -1.428502
  H     -0.876509    0.530074   -2.262764
  O     -0.805703    1.531524    0.720326
  H     -0.635911    1.233520   -0.235864
  H     -0.128772    2.223515    0.844783
  O      0.731172   -1.534391   -0.728491
  H      1.706130   -1.572719   -0.739898
  H      0.519151   -1.321643    0.243663
  O      0.151876   -0.721111    1.722074
  H     -0.226615    0.182960    1.448668
  H     -0.618125   -1.185120    2.099864

Dispersion correction           -0.007332420
FINAL SINGLE POINT ENERGY      -305.524754552152
Dispersion correction            ...

DIPOLE MOMENT
-------------
                                X             Y             Z
Electronic contribution:     -0.01768       0.01828       0.00335
Nuclear contribution   :      0.05623      -0.10963      -0.02439
                        -----------------------------------------
Total Dipole Moment    :      0.03855      -0.09135      -0.02104
                        -----------------------------------------
Magnitude (a.u.)       :      0.10136
Magnitude (Debye)      :      0.25764

                             ****ORCA TERMINATED NORMALLY****
TOTAL RUN TIME: 0 days 0 hours 42 minutes 33 seconds 242 msec
