                         Program Version 4.2.0 -  RELEASE  -
|  1> # 12h2o.su.etal.mol2,3,4,5,6,7
|  2> ! MP2 def2-TZVP EnGrad TightSCF
|  3>
|  4> %pal
|  5>     nprocs 6
|  6> end
|  7>
|  8> %maxcore 8000
|  9>
| 10> %scf
| 11>     ConvForced true
| 12> end
| 13>
| 14> *xyz 0 1
| 15> O   0.923410000  -1.794470000  -2.768350000
| 16> H   1.359750000  -2.338250000  -3.430940000
| 17> H   1.303000000  -0.879480000  -2.865760000
| 18> O  -1.752130000  -0.741530000  -2.896280000
| 19> H  -2.036450000  -0.920500000  -1.984040000
| 20> H  -0.921210000  -1.242140000  -2.984230000
| 21> O  -0.885520000   1.737840000   0.052730000
| 22> H  -1.032320000   2.090180000  -0.841890000
| 23> H  -1.284090000   0.839590000   0.017130000
| 24> O   0.885520000  -1.737840000   0.052730000
| 25> H   1.284090000  -0.839590000   0.017130000
| 26> H   1.032320000  -2.090180000  -0.841890000
| 27> O   1.737840000   0.885520000  -0.052730000
| 28> H   2.090180000   1.032320000   0.841890000
| 29> H   0.839590000   1.284090000  -0.017130000
| 30> O  -1.737840000  -0.885520000  -0.052730000
| 31> H  -2.090180000  -1.032320000   0.841890000
| 32> H  -0.839590000  -1.284090000  -0.017130000
| 33> *
| 34>
| 35>                          ****END OF INPUT****

CARTESIAN COORDINATES (ANGSTROEM)
---------------------------------
  O      0.923410   -1.794470   -2.768350
  H      1.359750   -2.338250   -3.430940
  H      1.303000   -0.879480   -2.865760
  O     -1.752130   -0.741530   -2.896280
  H     -2.036450   -0.920500   -1.984040
  H     -0.921210   -1.242140   -2.984230
  O     -0.885520    1.737840    0.052730
  H     -1.032320    2.090180   -0.841890
  H     -1.284090    0.839590    0.017130
  O      0.885520   -1.737840    0.052730
  H      1.284090   -0.839590    0.017130
  H      1.032320   -2.090180   -0.841890
  O      1.737840    0.885520   -0.052730
  H      2.090180    1.032320    0.841890
  H      0.839590    1.284090   -0.017130
  O     -1.737840   -0.885520   -0.052730
  H     -2.090180   -1.032320    0.841890
  H     -0.839590   -1.284090   -0.017130

 Total Charge           Charge          ....    0
 Multiplicity           Mult            ....    1
 Number of Electrons    NEL             ....   60
 Basis Dimension        Dim             ....  258

ORBITAL ENERGIES
----------------

  NO   OCC          E(Eh)            E(eV)
   0   2.0000     -20.611428      -560.8655
   1   2.0000     -20.573886      -559.8439
   2   2.0000     -20.565611      -559.6187
   3   2.0000     -20.561830      -559.5158
   4   2.0000     -20.546697      -559.1040
   5   2.0000     -20.517146      -558.2999
   6   2.0000      -1.391904       -37.8756
   7   2.0000      -1.368928       -37.2504
   8   2.0000      -1.355450       -36.8837
   9   2.0000      -1.342597       -36.5339
  10   2.0000      -1.328604       -36.1532
  11   2.0000      -1.302264       -35.4364
  12   2.0000      -0.757291       -20.6069
  13   2.0000      -0.727854       -19.8059
  14   2.0000      -0.717699       -19.5296
  15   2.0000      -0.715484       -19.4693
  16   2.0000      -0.708644       -19.2832
  17   2.0000      -0.681815       -18.5531
  18   2.0000      -0.638803       -17.3827
  19   2.0000      -0.614851       -16.7309
  20   2.0000      -0.605265       -16.4701
  21   2.0000      -0.588332       -16.0093
  22   2.0000      -0.578867       -15.7518
  23   2.0000      -0.548653       -14.9296
  24   2.0000      -0.531158       -14.4536
  25   2.0000      -0.516493       -14.0545
  26   2.0000      -0.508939       -13.8489
  27   2.0000      -0.505911       -13.7665
  28   2.0000      -0.495192       -13.4749
  29   2.0000      -0.466826       -12.7030
  30   0.0000       0.098069         2.6686
  31   0.0000       0.130732         3.5574
  32   0.0000       0.151896         4.1333
  33   0.0000       0.168435         4.5834
  34   0.0000       0.187888         5.1127

MULLIKEN ATOMIC CHARGES
-----------------------
   0 O :   -0.718437
   1 H :    0.364432
   2 H :    0.376739
   3 O :   -0.724886
   4 H :    0.367906
   5 H :    0.343423
   6 O :   -0.720525
   7 H :    0.355101
   8 H :    0.371196
   9 O :   -0.729352
  10 H :    0.356825
  11 H :    0.373418
  12 O :   -0.723963
  13 H :    0.351490
  14 H :    0.369551
  15 O :   -0.740414
  16 H :    0.356114
  17 H :    0.371382
Sum of atomic charges:   -0.0000000

LOEWDIN ATOMIC CHARGES
----------------------
   0 O :   -0.288227
   1 H :    0.167951
   2 H :    0.194076
   3 O :   -0.353290
   4 H :    0.148779
   5 H :    0.140464
   6 O :   -0.310504
   7 H :    0.169053
   8 H :    0.144662
   9 O :   -0.316200
  10 H :    0.139431
  11 H :    0.147834
  12 O :   -0.315790
  13 H :    0.168187
  14 H :    0.144909
  15 O :   -0.297200
  16 H :    0.169704
  17 H :    0.146163

  Mayer bond orders larger than 0.100000
B(  0-O ,  1-H ) :   0.8318 B(  0-O ,  2-H ) :   0.8157 B(  3-O ,  4-H ) :   0.8244
B(  3-O ,  5-H ) :   0.8340 B(  6-O ,  7-H ) :   0.8380 B(  6-O ,  8-H ) :   0.7704
B(  6-O , 14-H ) :   0.1140 B(  9-O , 10-H ) :   0.7750 B(  9-O , 11-H ) :   0.8136
B(  9-O , 17-H ) :   0.1245 B( 10-H , 12-O ) :   0.1072 B( 12-O , 13-H ) :   0.8418
B( 12-O , 14-H ) :   0.7617 B( 15-O , 16-H ) :   0.8361 B( 15-O , 17-H ) :   0.7429

MP2 TOTAL ENERGY:     -457.944498422 Eh
FINAL SINGLE POINT ENERGY      -457.944498421855

DIPOLE MOMENT
-------------
                                X             Y             Z
Electronic contribution:     -0.01913      -0.03808      -0.04505
Nuclear contribution   :      1.13412      -0.25668       0.05351
                        -----------------------------------------
Total Dipole Moment    :      1.11499      -0.29475       0.00847
                        -----------------------------------------
Magnitude (a.u.)       :      1.15332
Magnitude (Debye)      :      2.93151

Rotational constants in cm-1:     0.054265     0.044564     0.034232
Rotational constants in MHz :  1626.836658  1335.992060  1026.248258

                             ****ORCA TERMINATED NORMALLY****
TOTAL RUN TIME: 0 days 0 hours 1 minutes 29 seconds 200 msec
