                         Program Version 4.2.0 -  RELEASE  -
|  1> # 12h2o.su.etal.mol0,1,3,5,7,8,9,10,11
|  2> ! MP2 def2-TZVP EnGrad TightSCF
|  3>
|  4> %pal
|  5>     nprocs 6
|  6> end
|  7>
|  8> %maxcore 8000
|  9>
| 10> %scf
| 11>     ConvForced true
| 12> end
| 13>
| 14> *xyz 0 1
| 15> O   1.794470000   0.923410000   2.768350000
| 16> H   2.338250000   1.359750000   3.430940000
| 17> H   0.879480000   1.303000000   2.865760000
| 18> O  -1.794470000  -0.923410000   2.768350000
| 19> H  -2.338250000  -1.359750000   3.430940000
| 20> H  -0.879480000  -1.303000000   2.865760000
| 21> O  -1.752130000  -0.741530000  -2.896280000
| 22> H  -2.036450000  -0.920500000  -1.984040000
| 23> H  -0.921210000  -1.242140000  -2.984230000
| 24> O   0.885520000  -1.737840000   0.052730000
| 25> H   1.284090000  -0.839590000   0.017130000
| 26> H   1.032320000  -2.090180000  -0.841890000
| 27> O  -1.737840000  -0.885520000  -0.052730000
| 28> H  -2.090180000  -1.032320000   0.841890000
| 29> H  -0.839590000  -1.284090000  -0.017130000
| 30> O   1.752130000   0.741530000  -2.896280000
| 31> H   2.036450000   0.920500000  -1.984040000
| 32> H   0.921210000   1.242140000  -2.984230000
| 33> O   0.741530000  -1.752130000   2.896280000
| 34> H   0.920500000  -2.036450000   1.984040000
| 35> H   1.242140000  -0.921210000   2.984230000
| 36> O  -0.923410000   1.794470000  -2.768350000
| 37> H  -1.359750000   2.338250000  -3.430940000
| 38> H  -1.303000000   0.879480000  -2.865760000
| 39> O  -0.741530000   1.752130000   2.896280000
| 40> H  -0.920500000   2.036450000   1.984040000
| 41> H  -1.242140000   0.921210000   2.984230000
| 42> *
| 43>
| 44>                          ****END OF INPUT****

CARTESIAN COORDINATES (ANGSTROEM)
---------------------------------
  O      1.794470    0.923410    2.768350
  H      2.338250    1.359750    3.430940
  H      0.879480    1.303000    2.865760
  O     -1.794470   -0.923410    2.768350
  H     -2.338250   -1.359750    3.430940
  H     -0.879480   -1.303000    2.865760
  O     -1.752130   -0.741530   -2.896280
  H     -2.036450   -0.920500   -1.984040
  H     -0.921210   -1.242140   -2.984230
  O      0.885520   -1.737840    0.052730
  H      1.284090   -0.839590    0.017130
  H      1.032320   -2.090180   -0.841890
  O     -1.737840   -0.885520   -0.052730
  H     -2.090180   -1.032320    0.841890
  H     -0.839590   -1.284090   -0.017130
  O      1.752130    0.741530   -2.896280
  H      2.036450    0.920500   -1.984040
  H      0.921210    1.242140   -2.984230
  O      0.741530   -1.752130    2.896280
  H      0.920500   -2.036450    1.984040
  H      1.242140   -0.921210    2.984230
  O     -0.923410    1.794470   -2.768350
  H     -1.359750    2.338250   -3.430940
  H     -1.303000    0.879480   -2.865760
  O     -0.741530    1.752130    2.896280
  H     -0.920500    2.036450    1.984040
  H     -1.242140    0.921210    2.984230

 Total Charge           Charge          ....    0
 Multiplicity           Mult            ....    1
 Number of Electrons    NEL             ....   90
 Basis Dimension        Dim             ....  387

ORBITAL ENERGIES
----------------

  NO   OCC          E(Eh)            E(eV)
   0   2.0000     -20.625396      -561.2455
   1   2.0000     -20.574590      -559.8630
   2   2.0000     -20.571746      -559.7857
   3   2.0000     -20.569953      -559.7369
   4   2.0000     -20.564349      -559.5844
   5   2.0000     -20.557434      -559.3962
   6   2.0000     -20.542660      -558.9942
   7   2.0000     -20.542278      -558.9838
   8   2.0000     -20.538189      -558.8725
   9   2.0000      -1.408591       -38.3297
  10   2.0000      -1.372209       -37.3397
  11   2.0000      -1.361582       -37.0505
  12   2.0000      -1.360578       -37.0232
  13   2.0000      -1.349618       -36.7250
  14   2.0000      -1.335967       -36.3535
  15   2.0000      -1.328871       -36.1604
  16   2.0000      -1.326554       -36.0974
  17   2.0000      -1.316885       -35.8343
  18   2.0000      -0.767047       -20.8724
  19   2.0000      -0.738516       -20.0960
  20   2.0000      -0.728725       -19.8296
  21   2.0000      -0.723420       -19.6853
  22   2.0000      -0.722014       -19.6470
  23   2.0000      -0.716939       -19.5089
  24   2.0000      -0.707732       -19.2584
  25   2.0000      -0.706434       -19.2231
  26   2.0000      -0.689986       -18.7755
  27   2.0000      -0.655257       -17.8304
  28   2.0000      -0.625732       -17.0270
  29   2.0000      -0.614940       -16.7334
  30   2.0000      -0.604296       -16.4437
  31   2.0000      -0.594699       -16.1826
  32   2.0000      -0.585891       -15.9429
  33   2.0000      -0.574890       -15.6436
  34   2.0000      -0.561786       -15.2870
  35   2.0000      -0.553714       -15.0673
  36   2.0000      -0.545208       -14.8359
  37   2.0000      -0.518809       -14.1175
  38   2.0000      -0.515284       -14.0216
  39   2.0000      -0.511602       -13.9214
  40   2.0000      -0.507696       -13.8151
  41   2.0000      -0.506586       -13.7849
  42   2.0000      -0.494144       -13.4463
  43   2.0000      -0.491527       -13.3751
  44   2.0000      -0.485515       -13.2115
  45   0.0000       0.079736         2.1697
  46   0.0000       0.121858         3.3159
  47   0.0000       0.136003         3.7008
  48   0.0000       0.150486         4.0949
  49   0.0000       0.154832         4.2132

MULLIKEN ATOMIC CHARGES
-----------------------
   0 O :   -0.751126
   1 H :    0.346213
   2 H :    0.380783
   3 O :   -0.759071
   4 H :    0.351836
   5 H :    0.384369
   6 O :   -0.698881
   7 H :    0.393114
   8 H :    0.337079
   9 O :   -0.713912
  10 H :    0.373249
  11 H :    0.370647
  12 O :   -0.745224
  13 H :    0.374186
  14 H :    0.339653
  15 O :   -0.711937
  16 H :    0.318758
  17 H :    0.367704
  18 O :   -0.722149
  19 H :    0.382513
  20 H :    0.372072
  21 O :   -0.742916
  22 H :    0.337276
  23 H :    0.385767
  24 O :   -0.710958
  25 H :    0.361630
  26 H :    0.379325
Sum of atomic charges:   -0.0000000

LOEWDIN ATOMIC CHARGES
----------------------
   0 O :   -0.345076
   1 H :    0.158108
   2 H :    0.145051
   3 O :   -0.315926
   4 H :    0.159764
   5 H :    0.146156
   6 O :   -0.276777
   7 H :    0.160503
   8 H :    0.163853
   9 O :   -0.275419
  10 H :    0.184293
  11 H :    0.177084
  12 O :   -0.347034
  13 H :    0.150193
  14 H :    0.136076
  15 O :   -0.349378
  16 H :    0.152997
  17 H :    0.149754
  18 O :   -0.284830
  19 H :    0.155051
  20 H :    0.151158
  21 O :   -0.341415
  22 H :    0.153871
  23 H :    0.146381
  24 O :   -0.282658
  25 H :    0.174240
  26 H :    0.153982

  Mayer bond orders larger than 0.100000
B(  0-O ,  1-H ) :   0.8458 B(  0-O ,  2-H ) :   0.7464 B(  2-H , 24-O ) :   0.1113
B(  3-O ,  4-H ) :   0.8397 B(  3-O ,  5-H ) :   0.7268 B(  5-H , 18-O ) :   0.1229
B(  6-O ,  7-H ) :   0.7874 B(  6-O ,  8-H ) :   0.8465 B(  9-O , 10-H ) :   0.8153
B(  9-O , 11-H ) :   0.8264 B( 12-O , 13-H ) :   0.8074 B( 12-O , 14-H ) :   0.7991
B( 15-O , 16-H ) :   0.8623 B( 15-O , 17-H ) :   0.7950 B( 18-O , 19-H ) :   0.8128
B( 18-O , 20-H ) :   0.7875 B( 21-O , 22-H ) :   0.8504 B( 21-O , 23-H ) :   0.7537
B( 24-O , 25-H ) :   0.8338 B( 24-O , 26-H ) :   0.7888

MP2 TOTAL ENERGY:     -686.919485493 Eh
FINAL SINGLE POINT ENERGY      -686.919485493449

DIPOLE MOMENT
-------------
                                X             Y             Z
Electronic contribution:     -0.15278      -0.20489       0.16771
Nuclear contribution   :      0.22919      -0.30853       0.63259
                        -----------------------------------------
Total Dipole Moment    :      0.07641      -0.51342       0.80031
                        -----------------------------------------
Magnitude (a.u.)       :      0.95391
Magnitude (Debye)      :      2.42464

Rotational constants in cm-1:     0.028010     0.013193     0.012412
Rotational constants in MHz :   839.721470   395.528749   372.101668

                             ****ORCA TERMINATED NORMALLY****
TOTAL RUN TIME: 0 days 0 hours 4 minutes 19 seconds 570 msec
