                         Program Version 4.2.0 -  RELEASE  -
|  1> # 12mecn.remya.etal.2.mol5
|  2> ! MP2 def2-TZVP EnGrad TightSCF
|  3>
|  4> %pal
|  5>     nprocs 6
|  6> end
|  7>
|  8> %maxcore 8000
|  9>
| 10> %scf
| 11>     ConvForced true
| 12> end
| 13>
| 14> *xyz 0 1
| 15> C  -1.955700000   2.515080000   1.698463000
| 16> H  -2.923830000   2.883163000   2.049269000
| 17> H  -1.154850000   3.171830000   2.050990000
| 18> H  -1.790380000   1.506115000   2.087896000
| 19> C  -1.948230000   2.482156000   0.253672000
| 20> N  -1.937550000   2.462523000  -0.913150000
| 21> *
| 22>
| 23>                          ****END OF INPUT****

CARTESIAN COORDINATES (ANGSTROEM)
---------------------------------
  C     -1.955700    2.515080    1.698463
  H     -2.923830    2.883163    2.049269
  H     -1.154850    3.171830    2.050990
  H     -1.790380    1.506115    2.087896
  C     -1.948230    2.482156    0.253672
  N     -1.937550    2.462523   -0.913150

 Total Charge           Charge          ....    0
 Multiplicity           Mult            ....    1
 Number of Electrons    NEL             ....   22
 Basis Dimension        Dim             ....  111

ORBITAL ENERGIES
----------------

  NO   OCC          E(Eh)            E(eV)
   0   2.0000     -15.573451      -423.7751
   1   2.0000     -11.285706      -307.0997
   2   2.0000     -11.280390      -306.9550
   3   2.0000      -1.214604       -33.0511
   4   2.0000      -1.044323       -28.4175
   5   2.0000      -0.700083       -19.0502
   6   2.0000      -0.633360       -17.2346
   7   2.0000      -0.631452       -17.1827
   8   2.0000      -0.556025       -15.1302
   9   2.0000      -0.457849       -12.4587
  10   2.0000      -0.457604       -12.4520
  11   0.0000       0.118672         3.2292
  12   0.0000       0.170887         4.6501
  13   0.0000       0.171123         4.6565
  14   0.0000       0.202238         5.5032
  15   0.0000       0.224196         6.1007

MULLIKEN ATOMIC CHARGES
-----------------------
   0 C :   -0.279040
   1 H :    0.172154
   2 H :    0.172311
   3 H :    0.172067
   4 C :   -0.145654
   5 N :   -0.091838
Sum of atomic charges:    0.0000000

LOEWDIN ATOMIC CHARGES
----------------------
   0 C :   -0.284002
   1 H :    0.152526
   2 H :    0.152804
   3 H :    0.152588
   4 C :   -0.219975
   5 N :    0.046059

  Mayer bond orders larger than 0.100000
B(  0-C ,  1-H ) :   0.9164 B(  0-C ,  2-H ) :   0.9164 B(  0-C ,  3-H ) :   0.9166
B(  0-C ,  4-C ) :   0.9013 B(  4-C ,  5-N ) :   2.8366

MP2 TOTAL ENERGY:     -132.483108319 Eh
FINAL SINGLE POINT ENERGY      -132.483108319164

DIPOLE MOMENT
-------------
                                X             Y             Z
Electronic contribution:      0.01517      -0.06241      -3.10920
Nuclear contribution   :     -0.02523       0.09123       4.64004
                        -----------------------------------------
Total Dipole Moment    :     -0.01006       0.02883       1.53084
                        -----------------------------------------
Magnitude (a.u.)       :      1.53115
Magnitude (Debye)      :      3.89186

Rotational constants in cm-1:     5.239611     0.308536     0.308416
Rotational constants in MHz : 157079.589855  9249.669037  9246.082393

                             ****ORCA TERMINATED NORMALLY****
TOTAL RUN TIME: 0 days 0 hours 0 minutes 11 seconds 336 msec
