                         Program Version 4.2.0 -  RELEASE  -
|  1> # 12mecn.remya.etal.2.mol5,7
|  2> ! MP2 def2-TZVP EnGrad TightSCF
|  3>
|  4> %pal
|  5>     nprocs 6
|  6> end
|  7>
|  8> %maxcore 8000
|  9>
| 10> %scf
| 11>     ConvForced true
| 12> end
| 13>
| 14> *xyz 0 1
| 15> C  -1.955700000   2.515080000   1.698463000
| 16> H  -2.923830000   2.883163000   2.049269000
| 17> H  -1.154850000   3.171830000   2.050990000
| 18> H  -1.790380000   1.506115000   2.087896000
| 19> C  -1.948230000   2.482156000   0.253672000
| 20> N  -1.937550000   2.462523000  -0.913150000
| 21> C   1.502241000   0.651296000   1.710523000
| 22> H   1.309219000   1.637164000   2.143202000
| 23> H   2.493408000   0.297996000   2.009069000
| 24> H   0.746597000  -0.059850000   2.055508000
| 25> C   1.447974000   0.738517000   0.269805000
| 26> N   1.405612000   0.808047000  -0.894380000
| 27> *
| 28>
| 29>                          ****END OF INPUT****

CARTESIAN COORDINATES (ANGSTROEM)
---------------------------------
  C     -1.955700    2.515080    1.698463
  H     -2.923830    2.883163    2.049269
  H     -1.154850    3.171830    2.050990
  H     -1.790380    1.506115    2.087896
  C     -1.948230    2.482156    0.253672
  N     -1.937550    2.462523   -0.913150
  C      1.502241    0.651296    1.710523
  H      1.309219    1.637164    2.143202
  H      2.493408    0.297996    2.009069
  H      0.746597   -0.059850    2.055508
  C      1.447974    0.738517    0.269805
  N      1.405612    0.808047   -0.894380

 Total Charge           Charge          ....    0
 Multiplicity           Mult            ....    1
 Number of Electrons    NEL             ....   44
 Basis Dimension        Dim             ....  222

ORBITAL ENERGIES
----------------

  NO   OCC          E(Eh)            E(eV)
   0   2.0000     -15.572244      -423.7423
   1   2.0000     -15.571290      -423.7163
   2   2.0000     -11.290366      -307.2265
   3   2.0000     -11.289811      -307.2114
   4   2.0000     -11.276982      -306.8623
   5   2.0000     -11.276206      -306.8412
   6   2.0000      -1.212678       -32.9986
   7   2.0000      -1.211047       -32.9543
   8   2.0000      -1.048839       -28.5404
   9   2.0000      -1.046107       -28.4660
  10   2.0000      -0.703346       -19.1390
  11   2.0000      -0.700802       -19.0698
  12   2.0000      -0.643304       -17.5052
  13   2.0000      -0.639114       -17.3912
  14   2.0000      -0.634349       -17.2615
  15   2.0000      -0.630898       -17.1676
  16   2.0000      -0.553828       -15.0704
  17   2.0000      -0.551168       -14.9980
  18   2.0000      -0.462539       -12.5863
  19   2.0000      -0.456843       -12.4313
  20   2.0000      -0.453900       -12.3512
  21   2.0000      -0.447309       -12.1719
  22   0.0000       0.094620         2.5748
  23   0.0000       0.141502         3.8505
  24   0.0000       0.148863         4.0508
  25   0.0000       0.156278         4.2526
  26   0.0000       0.183544         4.9945

MULLIKEN ATOMIC CHARGES
-----------------------
   0 C :   -0.289764
   1 H :    0.181833
   2 H :    0.168178
   3 H :    0.163997
   4 C :   -0.151196
   5 N :   -0.073191
   6 C :   -0.287978
   7 H :    0.162970
   8 H :    0.181762
   9 H :    0.169523
  10 C :   -0.153102
  11 N :   -0.073031
Sum of atomic charges:   -0.0000000

LOEWDIN ATOMIC CHARGES
----------------------
   0 C :   -0.288440
   1 H :    0.153406
   2 H :    0.150035
   3 H :    0.148561
   4 C :   -0.224525
   5 N :    0.060816
   6 C :   -0.288143
   7 H :    0.148259
   8 H :    0.154102
   9 H :    0.150664
  10 C :   -0.225845
  11 N :    0.061110

  Mayer bond orders larger than 0.100000
B(  0-C ,  1-H ) :   0.9118 B(  0-C ,  2-H ) :   0.9225 B(  0-C ,  3-H ) :   0.9202
B(  0-C ,  4-C ) :   0.8964 B(  4-C ,  5-N ) :   2.8268 B(  6-C ,  7-H ) :   0.9204
B(  6-C ,  8-H ) :   0.9122 B(  6-C ,  9-H ) :   0.9228 B(  6-C , 10-C ) :   0.8938
B( 10-C , 11-N ) :   2.8251

MP2 TOTAL ENERGY:     -264.963976786 Eh
FINAL SINGLE POINT ENERGY      -264.963976786339

DIPOLE MOMENT
-------------
                                X             Y             Z
Electronic contribution:     -0.10088       0.13419      -6.37747
Nuclear contribution   :      0.14892      -0.19897       9.25592
                        -----------------------------------------
Total Dipole Moment    :      0.04804      -0.06478       2.87845
                        -----------------------------------------
Magnitude (a.u.)       :      2.87958
Magnitude (Debye)      :      7.31931

Rotational constants in cm-1:     0.154711     0.054757     0.041091
Rotational constants in MHz :  4638.131915  1641.583063  1231.868711

                             ****ORCA TERMINATED NORMALLY****
TOTAL RUN TIME: 0 days 0 hours 1 minutes 18 seconds 439 msec
