                         Program Version 4.2.0 -  RELEASE  -
|  1> # 12h2o.su.etal.mol1,4,5
|  2> ! MP2 def2-TZVP EnGrad TightSCF
|  3>
|  4> %pal
|  5>     nprocs 6
|  6> end
|  7>
|  8> %maxcore 8000
|  9>
| 10> %scf
| 11>     ConvForced true
| 12> end
| 13>
| 14> *xyz 0 1
| 15> O  -1.794470000  -0.923410000   2.768350000
| 16> H  -2.338250000  -1.359750000   3.430940000
| 17> H  -0.879480000  -1.303000000   2.865760000
| 18> O  -0.885520000   1.737840000   0.052730000
| 19> H  -1.032320000   2.090180000  -0.841890000
| 20> H  -1.284090000   0.839590000   0.017130000
| 21> O   0.885520000  -1.737840000   0.052730000
| 22> H   1.284090000  -0.839590000   0.017130000
| 23> H   1.032320000  -2.090180000  -0.841890000
| 24> *
| 25>
| 26>                          ****END OF INPUT****

CARTESIAN COORDINATES (ANGSTROEM)
---------------------------------
  O     -1.794470   -0.923410    2.768350
  H     -2.338250   -1.359750    3.430940
  H     -0.879480   -1.303000    2.865760
  O     -0.885520    1.737840    0.052730
  H     -1.032320    2.090180   -0.841890
  H     -1.284090    0.839590    0.017130
  O      0.885520   -1.737840    0.052730
  H      1.284090   -0.839590    0.017130
  H      1.032320   -2.090180   -0.841890

 Total Charge           Charge          ....    0
 Multiplicity           Mult            ....    1
 Number of Electrons    NEL             ....   30
 Basis Dimension        Dim             ....  129

ORBITAL ENERGIES
----------------

  NO   OCC          E(Eh)            E(eV)
   0   2.0000     -20.566348      -559.6388
   1   2.0000     -20.553651      -559.2933
   2   2.0000     -20.552180      -559.2532
   3   2.0000      -1.342341       -36.5269
   4   2.0000      -1.329591       -36.1800
   5   2.0000      -1.327488       -36.1228
   6   2.0000      -0.704475       -19.1697
   7   2.0000      -0.695777       -18.9331
   8   2.0000      -0.690832       -18.7985
   9   2.0000      -0.582209       -15.8427
  10   2.0000      -0.568993       -15.4831
  11   2.0000      -0.564022       -15.3478
  12   2.0000      -0.509666       -13.8687
  13   2.0000      -0.496233       -13.5032
  14   2.0000      -0.495292       -13.4776
  15   0.0000       0.110297         3.0013
  16   0.0000       0.144874         3.9422
  17   0.0000       0.152161         4.1405
  18   0.0000       0.201636         5.4868
  19   0.0000       0.219412         5.9705

MULLIKEN ATOMIC CHARGES
-----------------------
   0 O :   -0.685415
   1 H :    0.334961
   2 H :    0.351090
   3 O :   -0.682567
   4 H :    0.329128
   5 H :    0.352363
   6 O :   -0.682777
   7 H :    0.346373
   8 H :    0.336845
Sum of atomic charges:   -0.0000000

LOEWDIN ATOMIC CHARGES
----------------------
   0 O :   -0.339469
   1 H :    0.156328
   2 H :    0.183556
   3 O :   -0.338262
   4 H :    0.161506
   5 H :    0.175400
   6 O :   -0.338247
   7 H :    0.173933
   8 H :    0.165256

  Mayer bond orders larger than 0.100000
B(  0-O ,  1-H ) :   0.8549 B(  0-O ,  2-H ) :   0.8390 B(  3-O ,  4-H ) :   0.8567
B(  3-O ,  5-H ) :   0.8372 B(  6-O ,  7-H ) :   0.8421 B(  6-O ,  8-H ) :   0.8529

MP2 TOTAL ENERGY:     -228.942154833 Eh
FINAL SINGLE POINT ENERGY      -228.942154832981

DIPOLE MOMENT
-------------
                                X             Y             Z
Electronic contribution:     -0.05374       0.08819       0.17078
Nuclear contribution   :      0.30898      -0.67915      -0.91596
                        -----------------------------------------
Total Dipole Moment    :      0.25524      -0.59096      -0.74519
                        -----------------------------------------
Magnitude (a.u.)       :      0.98473
Magnitude (Debye)      :      2.50298

Rotational constants in cm-1:     0.121852     0.113916     0.059549
Rotational constants in MHz :  3653.043164  3415.102132  1785.239514

                             ****ORCA TERMINATED NORMALLY****
TOTAL RUN TIME: 0 days 0 hours 0 minutes 8 seconds 647 msec
