                         Program Version 4.2.0 -  RELEASE  -
|  1> # 12mecn.remya.etal.2.mol2,5,11
|  2> ! MP2 def2-TZVP EnGrad TightSCF
|  3>
|  4> %pal
|  5>     nprocs 6
|  6> end
|  7>
|  8> %maxcore 8000
|  9>
| 10> %scf
| 11>     ConvForced true
| 12> end
| 13>
| 14> *xyz 0 1
| 15> C  -4.219070000  -3.477410000  -1.501740000
| 16> H  -3.251530000  -3.803540000  -1.893830000
| 17> H  -4.452920000  -2.481700000  -1.890840000
| 18> H  -4.992170000  -4.178130000  -1.824640000
| 19> C  -4.154550000  -3.418790000  -0.058340000
| 20> N  -4.091140000  -3.354840000   1.104432000
| 21> C  -1.955700000   2.515080000   1.698463000
| 22> H  -2.923830000   2.883163000   2.049269000
| 23> H  -1.154850000   3.171830000   2.050990000
| 24> H  -1.790380000   1.506115000   2.087896000
| 25> C  -1.948230000   2.482156000   0.253672000
| 26> N  -1.937550000   2.462523000  -0.913150000
| 27> C   4.214163000   3.378139000   1.593627000
| 28> H   3.242643000   3.657109000   2.012358000
| 29> H   4.969258000   4.086643000   1.941290000
| 30> H   4.482966000   2.372549000   1.931698000
| 31> C   4.130759000   3.388436000   0.150192000
| 32> N   4.050180000   3.381449000  -1.013420000
| 33> *
| 34>
| 35>                          ****END OF INPUT****

CARTESIAN COORDINATES (ANGSTROEM)
---------------------------------
  C     -4.219070   -3.477410   -1.501740
  H     -3.251530   -3.803540   -1.893830
  H     -4.452920   -2.481700   -1.890840
  H     -4.992170   -4.178130   -1.824640
  C     -4.154550   -3.418790   -0.058340
  N     -4.091140   -3.354840    1.104432
  C     -1.955700    2.515080    1.698463
  H     -2.923830    2.883163    2.049269
  H     -1.154850    3.171830    2.050990
  H     -1.790380    1.506115    2.087896
  C     -1.948230    2.482156    0.253672
  N     -1.937550    2.462523   -0.913150
  C      4.214163    3.378139    1.593627
  H      3.242643    3.657109    2.012358
  H      4.969258    4.086643    1.941290
  H      4.482966    2.372549    1.931698
  C      4.130759    3.388436    0.150192
  N      4.050180    3.381449   -1.013420

 Total Charge           Charge          ....    0
 Multiplicity           Mult            ....    1
 Number of Electrons    NEL             ....   66
 Basis Dimension        Dim             ....  333

ORBITAL ENERGIES
----------------

  NO   OCC          E(Eh)            E(eV)
   0   2.0000     -15.573041      -423.7640
   1   2.0000     -15.572791      -423.7572
   2   2.0000     -15.572134      -423.7393
   3   2.0000     -11.286745      -307.1279
   4   2.0000     -11.284559      -307.0685
   5   2.0000     -11.282859      -307.0222
   6   2.0000     -11.280429      -306.9561
   7   2.0000     -11.279491      -306.9306
   8   2.0000     -11.279071      -306.9191
   9   2.0000      -1.214840       -33.0575
  10   2.0000      -1.214257       -33.0416
  11   2.0000      -1.213260       -33.0145
  12   2.0000      -1.044723       -28.4284
  13   2.0000      -1.043124       -28.3848
  14   2.0000      -1.041924       -28.3522
  15   2.0000      -0.701496       -19.0887
  16   2.0000      -0.698938       -19.0191
  17   2.0000      -0.698889       -19.0177
  18   2.0000      -0.633385       -17.2353
  19   2.0000      -0.632450       -17.2098
  20   2.0000      -0.632241       -17.2041
  21   2.0000      -0.630050       -17.1445
  22   2.0000      -0.629712       -17.1353
  23   2.0000      -0.629000       -17.1160
  24   2.0000      -0.556411       -15.1407
  25   2.0000      -0.555253       -15.1092
  26   2.0000      -0.554715       -15.0946
  27   2.0000      -0.457924       -12.4607
  28   2.0000      -0.457701       -12.4547
  29   2.0000      -0.457425       -12.4472
  30   2.0000      -0.457356       -12.4453
  31   2.0000      -0.456493       -12.4218
  32   2.0000      -0.456270       -12.4157
  33   0.0000       0.101578         2.7641
  34   0.0000       0.120202         3.2709
  35   0.0000       0.129078         3.5124
  36   0.0000       0.160296         4.3619
  37   0.0000       0.170245         4.6326

MULLIKEN ATOMIC CHARGES
-----------------------
   0 C :   -0.279412
   1 H :    0.173004
   2 H :    0.177471
   3 H :    0.171129
   4 C :   -0.144930
   5 N :   -0.097248
   6 C :   -0.279222
   7 H :    0.172878
   8 H :    0.165471
   9 H :    0.177712
  10 C :   -0.144884
  11 N :   -0.091971
  12 C :   -0.279959
  13 H :    0.166282
  14 H :    0.172870
  15 H :    0.172924
  16 C :   -0.145593
  17 N :   -0.086522
Sum of atomic charges:    0.0000000

LOEWDIN ATOMIC CHARGES
----------------------
   0 C :   -0.282737
   1 H :    0.153445
   2 H :    0.154990
   3 H :    0.150928
   4 C :   -0.218249
   5 N :    0.041628
   6 C :   -0.284059
   7 H :    0.152969
   8 H :    0.150649
   9 H :    0.154082
  10 C :   -0.219868
  11 N :    0.046222
  12 C :   -0.284904
  13 H :    0.151027
  14 H :    0.151099
  15 H :    0.152939
  16 C :   -0.220169
  17 N :    0.050008

  Mayer bond orders larger than 0.100000
B(  0-C ,  1-H ) :   0.9156 B(  0-C ,  2-H ) :   0.9147 B(  0-C ,  3-H ) :   0.9165
B(  0-C ,  4-C ) :   0.9027 B(  4-C ,  5-N ) :   2.8407 B(  6-C ,  7-H ) :   0.9158
B(  6-C ,  8-H ) :   0.9181 B(  6-C ,  9-H ) :   0.9154 B(  6-C , 10-C ) :   0.9016
B( 10-C , 11-N ) :   2.8360 B( 12-C , 13-H ) :   0.9181 B( 12-C , 14-H ) :   0.9167
B( 12-C , 15-H ) :   0.9167 B( 12-C , 16-C ) :   0.9021 B( 16-C , 17-N ) :   2.8336

MP2 TOTAL ENERGY:     -397.449849181 Eh
FINAL SINGLE POINT ENERGY      -397.449849180619

DIPOLE MOMENT
-------------
                                X             Y             Z
Electronic contribution:     -0.02645       0.07834      -3.17031
Nuclear contribution   :      0.03611      -0.12885       4.64123
                        -----------------------------------------
Total Dipole Moment    :      0.00966      -0.05051       1.47093
                        -----------------------------------------
Magnitude (a.u.)       :      1.47182
Magnitude (Debye)      :      3.74108

Rotational constants in cm-1:     0.038275     0.006671     0.006338
Rotational constants in MHz :  1147.451344   199.979202   190.002572

                             ****ORCA TERMINATED NORMALLY****
TOTAL RUN TIME: 0 days 0 hours 1 minutes 57 seconds 423 msec
