                         Program Version 4.2.0 -  RELEASE  -
|  1> ! MP2 def2-TZVP EnGrad TightSCF FrozenCore
|  2>
|  3> %pal
|  4>     nprocs 12
|  5> end
|  6>
|  7> %maxcore 8000
|  8>
|  9> %scf
| 10>     ConvForced true
| 11> end
| 12>
| 13> *xyz 0 1
| 14> O    -0.4589938384    -1.0885422274    -1.2835209367
| 15> H     0.4866408208    -1.0631488549    -0.9920707778
| 16> C    -0.5080452815    -1.4785331742    -2.6505725218
| 17> H    -1.5535549008    -1.4352323215    -2.9680603388
| 18> H    -0.1479372152    -2.507197845     -2.7865695732
| 19> H     0.0834516192    -0.8132314424    -3.2960868614
| 20> O    -0.5499210705     0.221233489      2.3761253665
| 21> H    -0.5385018903     0.7780481084     1.5727126362
| 22> C    -1.5826949301    -0.7354690435     2.2067649101
| 23> H    -1.5208907294    -1.4354527563     3.0459675018
| 24> H    -1.4810910138    -1.3049704412     1.2709937088
| 25> H    -2.5856525473    -0.2774593608     2.2239756133
| 26> O    -0.3230384572     1.3856058526    -0.2132131632
| 27> H    -0.6212312674     0.5850280181    -0.7147447016
| 28> C    -0.8792394786     2.5623137679    -0.7920576622
| 29> H    -0.5092187185     3.4151737552    -0.2178395171
| 30> H    -1.9763063318     2.5578298016    -0.7438990811
| 31> H    -0.5702255174     2.6841846993    -1.8390993034
| 32> O     1.9582111301    -0.2454104726    -0.3851409125
| 33> H     1.4646077776     0.5934655308    -0.2798138165
| 34> C     2.4311118679    -0.634160896      0.9119219394
| 35> H     2.7809899223    -1.6665930705     0.8289718797
| 36> H     1.6348267945    -0.5722364903     1.6624479176
| 37> H     3.2772380206    -0.0062043873     1.2227718889
| 38> *
| 39>
| 40>                          ****END OF INPUT****

CARTESIAN COORDINATES (ANGSTROEM)
---------------------------------
  O     -0.458994   -1.088542   -1.283521
  H      0.486641   -1.063149   -0.992071
  C     -0.508045   -1.478533   -2.650573
  H     -1.553555   -1.435232   -2.968060
  H     -0.147937   -2.507198   -2.786570
  H      0.083452   -0.813231   -3.296087
  O     -0.549921    0.221233    2.376125
  H     -0.538502    0.778048    1.572713
  C     -1.582695   -0.735469    2.206765
  H     -1.520891   -1.435453    3.045968
  H     -1.481091   -1.304970    1.270994
  H     -2.585653   -0.277459    2.223976
  O     -0.323038    1.385606   -0.213213
  H     -0.621231    0.585028   -0.714745
  C     -0.879239    2.562314   -0.792058
  H     -0.509219    3.415174   -0.217840
  H     -1.976306    2.557830   -0.743899
  H     -0.570226    2.684185   -1.839099
  O      1.958211   -0.245410   -0.385141
  H      1.464608    0.593466   -0.279814
  C      2.431112   -0.634161    0.911922
  H      2.780990   -1.666593    0.828972
  H      1.634827   -0.572236    1.662448
  H      3.277238   -0.006204    1.222772

 Total Charge           Charge          ....    0
 Multiplicity           Mult            ....    1
 Number of Electrons    NEL             ....   72
 Basis Dimension        Dim             ....  344

ORBITAL ENERGIES
----------------

  NO   OCC          E(Eh)            E(eV)
   0   2.0000     -20.569141      -559.7148
   1   2.0000     -20.559485      -559.4520
   2   2.0000     -20.557440      -559.3964
   3   2.0000     -20.527748      -558.5884
   4   2.0000     -11.283862      -307.0495
   5   2.0000     -11.277392      -306.8734
   6   2.0000     -11.262402      -306.4655
   7   2.0000     -11.251645      -306.1728
   8   2.0000      -1.377183       -37.4751
   9   2.0000      -1.357178       -36.9307
  10   2.0000      -1.348417       -36.6923
  11   2.0000      -1.328269       -36.1440
  12   2.0000      -0.940941       -25.6043
  13   2.0000      -0.926575       -25.2134
  14   2.0000      -0.916155       -24.9299
  15   2.0000      -0.900145       -24.4942
  16   2.0000      -0.710104       -19.3229
  17   2.0000      -0.700846       -19.0710
  18   2.0000      -0.691134       -18.8067
  19   2.0000      -0.674699       -18.3595
  20   2.0000      -0.629228       -17.1222
  21   2.0000      -0.622902       -16.9500
  22   2.0000      -0.618238       -16.8231
  23   2.0000      -0.605658       -16.4808
  24   2.0000      -0.597314       -16.2537
  25   2.0000      -0.594287       -16.1714
  26   2.0000      -0.588541       -16.0150
  27   2.0000      -0.570247       -15.5172
  28   2.0000      -0.524720       -14.2784
  29   2.0000      -0.513803       -13.9813
  30   2.0000      -0.496543       -13.5116
  31   2.0000      -0.483083       -13.1453
  32   2.0000      -0.462891       -12.5959
  33   2.0000      -0.452711       -12.3189
  34   2.0000      -0.449503       -12.2316
  35   2.0000      -0.423485       -11.5236
  36   0.0000       0.123764         3.3678
  37   0.0000       0.158148         4.3034
  38   0.0000       0.161530         4.3955
  39   0.0000       0.176251         4.7960
  40   0.0000       0.187816         5.1107

MULLIKEN ATOMIC CHARGES
-----------------------
   0 O :   -0.552161
   1 H :    0.367674
   2 C :   -0.172359
   3 H :    0.128845
   4 H :    0.123523
   5 H :    0.117440
   6 O :   -0.519105
   7 H :    0.346882
   8 C :   -0.189414
   9 H :    0.120935
  10 H :    0.125592
  11 H :    0.102345
  12 O :   -0.593778
  13 H :    0.375166
  14 C :   -0.172817
  15 H :    0.138326
  16 H :    0.125970
  17 H :    0.122656
  18 O :   -0.549091
  19 H :    0.351003
  20 C :   -0.200089
  21 H :    0.122933
  22 H :    0.160972
  23 H :    0.118554
Sum of atomic charges:   -0.0000000

LOEWDIN ATOMIC CHARGES
----------------------
   0 O :   -0.089654
   1 H :    0.169606
   2 C :   -0.382122
   3 H :    0.109025
   4 H :    0.103542
   5 H :    0.099621
   6 O :   -0.098580
   7 H :    0.160113
   8 C :   -0.399952
   9 H :    0.106164
  10 H :    0.096067
  11 H :    0.094660
  12 O :   -0.094607
  13 H :    0.169173
  14 C :   -0.376094
  15 H :    0.112368
  16 H :    0.103405
  17 H :    0.102735
  18 O :   -0.094295
  19 H :    0.167544
  20 C :   -0.374016
  21 H :    0.107311
  22 H :    0.106503
  23 H :    0.101481

  Mayer bond orders larger than 0.100000
B(  0-O ,  1-H ) :   0.7582 B(  0-O ,  2-C ) :   0.8893 B(  0-O , 13-H ) :   0.1018
B(  2-C ,  3-H ) :   0.9418 B(  2-C ,  4-H ) :   0.9405 B(  2-C ,  5-H ) :   0.9347
B(  6-O ,  7-H ) :   0.8084 B(  6-O ,  8-C ) :   0.9158 B(  8-C ,  9-H ) :   0.9421
B(  8-C , 10-H ) :   0.9309 B(  8-C , 11-H ) :   0.9379 B( 12-O , 13-H ) :   0.7401
B( 12-O , 14-C ) :   0.8685 B( 14-C , 15-H ) :   0.9430 B( 14-C , 16-H ) :   0.9385
B( 14-C , 17-H ) :   0.9368 B( 18-O , 19-H ) :   0.7987 B( 18-O , 20-C ) :   0.8661
B( 20-C , 21-H ) :   0.9418 B( 20-C , 22-H ) :   0.9205 B( 20-C , 23-H ) :   0.9410

MP2 TOTAL ENERGY:     -462.072446335 Eh
FINAL SINGLE POINT ENERGY      -462.072446334866

DIPOLE MOMENT
-------------
                                X             Y             Z
Electronic contribution:      1.57768       0.70286       1.04283
Nuclear contribution   :     -1.86422      -0.48921      -2.11275
                        -----------------------------------------
Total Dipole Moment    :     -0.28654       0.21364      -1.06993
                        -----------------------------------------
Magnitude (a.u.)       :      1.12805
Magnitude (Debye)      :      2.86727

Rotational constants in cm-1:     0.038968     0.032216     0.028260
Rotational constants in MHz :  1168.221912   965.806995   847.218007

                             ****ORCA TERMINATED NORMALLY****
TOTAL RUN TIME: 0 days 0 hours 4 minutes 47 seconds 648 msec
