                         Program Version 4.2.0 -  RELEASE  -
|  1> # 12h2o.su.etal.mol1,3,8,10
|  2> ! MP2 def2-TZVP EnGrad TightSCF
|  3>
|  4> %pal
|  5>     nprocs 6
|  6> end
|  7>
|  8> %maxcore 8000
|  9>
| 10> %scf
| 11>     ConvForced true
| 12> end
| 13>
| 14> *xyz 0 1
| 15> O  -1.794470000  -0.923410000   2.768350000
| 16> H  -2.338250000  -1.359750000   3.430940000
| 17> H  -0.879480000  -1.303000000   2.865760000
| 18> O  -1.752130000  -0.741530000  -2.896280000
| 19> H  -2.036450000  -0.920500000  -1.984040000
| 20> H  -0.921210000  -1.242140000  -2.984230000
| 21> O   1.752130000   0.741530000  -2.896280000
| 22> H   2.036450000   0.920500000  -1.984040000
| 23> H   0.921210000   1.242140000  -2.984230000
| 24> O  -0.923410000   1.794470000  -2.768350000
| 25> H  -1.359750000   2.338250000  -3.430940000
| 26> H  -1.303000000   0.879480000  -2.865760000
| 27> *
| 28>
| 29>                          ****END OF INPUT****

CARTESIAN COORDINATES (ANGSTROEM)
---------------------------------
  O     -1.794470   -0.923410    2.768350
  H     -2.338250   -1.359750    3.430940
  H     -0.879480   -1.303000    2.865760
  O     -1.752130   -0.741530   -2.896280
  H     -2.036450   -0.920500   -1.984040
  H     -0.921210   -1.242140   -2.984230
  O      1.752130    0.741530   -2.896280
  H      2.036450    0.920500   -1.984040
  H      0.921210    1.242140   -2.984230
  O     -0.923410    1.794470   -2.768350
  H     -1.359750    2.338250   -3.430940
  H     -1.303000    0.879480   -2.865760

 Total Charge           Charge          ....    0
 Multiplicity           Mult            ....    1
 Number of Electrons    NEL             ....   40
 Basis Dimension        Dim             ....  172

ORBITAL ENERGIES
----------------

  NO   OCC          E(Eh)            E(eV)
   0   2.0000     -20.597759      -560.4935
   1   2.0000     -20.570418      -559.7495
   2   2.0000     -20.542052      -558.9776
   3   2.0000     -20.526868      -558.5645
   4   2.0000      -1.383518       -37.6475
   5   2.0000      -1.345733       -36.6193
   6   2.0000      -1.327127       -36.1130
   7   2.0000      -1.308111       -35.5955
   8   2.0000      -0.740121       -20.1397
   9   2.0000      -0.714149       -19.4330
  10   2.0000      -0.711878       -19.3712
  11   2.0000      -0.677446       -18.4342
  12   2.0000      -0.622433       -16.9373
  13   2.0000      -0.581753       -15.8303
  14   2.0000      -0.578301       -15.7364
  15   2.0000      -0.548972       -14.9383
  16   2.0000      -0.524788       -14.2802
  17   2.0000      -0.513654       -13.9772
  18   2.0000      -0.490508       -13.3474
  19   2.0000      -0.474646       -12.9158
  20   0.0000       0.108937         2.9643
  21   0.0000       0.121764         3.3134
  22   0.0000       0.162175         4.4130
  23   0.0000       0.175344         4.7713
  24   0.0000       0.188414         5.1270

MULLIKEN ATOMIC CHARGES
-----------------------
   0 O :   -0.683760
   1 H :    0.340840
   2 H :    0.343090
   3 O :   -0.687247
   4 H :    0.363985
   5 H :    0.367893
   6 O :   -0.716161
   7 H :    0.328131
   8 H :    0.361740
   9 O :   -0.735169
  10 H :    0.338956
  11 H :    0.377703
Sum of atomic charges:   -0.0000000

LOEWDIN ATOMIC CHARGES
----------------------
   0 O :   -0.339596
   1 H :    0.158702
   2 H :    0.180990
   3 O :   -0.270635
   4 H :    0.177348
   5 H :    0.179042
   6 O :   -0.353364
   7 H :    0.159363
   8 H :    0.146967
   9 O :   -0.338556
  10 H :    0.154738
  11 H :    0.145000

  Mayer bond orders larger than 0.100000
B(  0-O ,  1-H ) :   0.8520 B(  0-O ,  2-H ) :   0.8456 B(  3-O ,  4-H ) :   0.8336
B(  3-O ,  5-H ) :   0.8273 B(  6-O ,  7-H ) :   0.8586 B(  6-O ,  8-H ) :   0.8051
B(  9-O , 10-H ) :   0.8497 B(  9-O , 11-H ) :   0.7671

MP2 TOTAL ENERGY:     -305.272132782 Eh
FINAL SINGLE POINT ENERGY      -305.272132781510

DIPOLE MOMENT
-------------
                                X             Y             Z
Electronic contribution:     -0.24629      -0.07858      -0.20312
Nuclear contribution   :     -0.37017      -0.98813       1.37221
                        -----------------------------------------
Total Dipole Moment    :     -0.61645      -1.06671       1.16909
                        -----------------------------------------
Magnitude (a.u.)       :      1.69843
Magnitude (Debye)      :      4.31706

Rotational constants in cm-1:     0.102473     0.029958     0.026857
Rotational constants in MHz :  3072.066407   898.117464   805.160000

                             ****ORCA TERMINATED NORMALLY****
TOTAL RUN TIME: 0 days 0 hours 0 minutes 15 seconds 441 msec
