                         Program Version 4.2.0 -  RELEASE  -
|  1> # 12h2o.su.etal.mol0,1,2,4,5,6,7,10
|  2> ! MP2 def2-TZVP EnGrad TightSCF
|  3>
|  4> %pal
|  5>     nprocs 6
|  6> end
|  7>
|  8> %maxcore 8000
|  9>
| 10> %scf
| 11>     ConvForced true
| 12> end
| 13>
| 14> *xyz 0 1
| 15> O   1.794470000   0.923410000   2.768350000
| 16> H   2.338250000   1.359750000   3.430940000
| 17> H   0.879480000   1.303000000   2.865760000
| 18> O  -1.794470000  -0.923410000   2.768350000
| 19> H  -2.338250000  -1.359750000   3.430940000
| 20> H  -0.879480000  -1.303000000   2.865760000
| 21> O   0.923410000  -1.794470000  -2.768350000
| 22> H   1.359750000  -2.338250000  -3.430940000
| 23> H   1.303000000  -0.879480000  -2.865760000
| 24> O  -0.885520000   1.737840000   0.052730000
| 25> H  -1.032320000   2.090180000  -0.841890000
| 26> H  -1.284090000   0.839590000   0.017130000
| 27> O   0.885520000  -1.737840000   0.052730000
| 28> H   1.284090000  -0.839590000   0.017130000
| 29> H   1.032320000  -2.090180000  -0.841890000
| 30> O   1.737840000   0.885520000  -0.052730000
| 31> H   2.090180000   1.032320000   0.841890000
| 32> H   0.839590000   1.284090000  -0.017130000
| 33> O  -1.737840000  -0.885520000  -0.052730000
| 34> H  -2.090180000  -1.032320000   0.841890000
| 35> H  -0.839590000  -1.284090000  -0.017130000
| 36> O  -0.923410000   1.794470000  -2.768350000
| 37> H  -1.359750000   2.338250000  -3.430940000
| 38> H  -1.303000000   0.879480000  -2.865760000
| 39> *
| 40>
| 41>                          ****END OF INPUT****

CARTESIAN COORDINATES (ANGSTROEM)
---------------------------------
  O      1.794470    0.923410    2.768350
  H      2.338250    1.359750    3.430940
  H      0.879480    1.303000    2.865760
  O     -1.794470   -0.923410    2.768350
  H     -2.338250   -1.359750    3.430940
  H     -0.879480   -1.303000    2.865760
  O      0.923410   -1.794470   -2.768350
  H      1.359750   -2.338250   -3.430940
  H      1.303000   -0.879480   -2.865760
  O     -0.885520    1.737840    0.052730
  H     -1.032320    2.090180   -0.841890
  H     -1.284090    0.839590    0.017130
  O      0.885520   -1.737840    0.052730
  H      1.284090   -0.839590    0.017130
  H      1.032320   -2.090180   -0.841890
  O      1.737840    0.885520   -0.052730
  H      2.090180    1.032320    0.841890
  H      0.839590    1.284090   -0.017130
  O     -1.737840   -0.885520   -0.052730
  H     -2.090180   -1.032320    0.841890
  H     -0.839590   -1.284090   -0.017130
  O     -0.923410    1.794470   -2.768350
  H     -1.359750    2.338250   -3.430940
  H     -1.303000    0.879480   -2.865760

 Total Charge           Charge          ....    0
 Multiplicity           Mult            ....    1
 Number of Electrons    NEL             ....   80
 Basis Dimension        Dim             ....  344

ORBITAL ENERGIES
----------------

  NO   OCC          E(Eh)            E(eV)
   0   2.0000     -20.577202      -559.9341
   1   2.0000     -20.577202      -559.9341
   2   2.0000     -20.577202      -559.9341
   3   2.0000     -20.577202      -559.9341
   4   2.0000     -20.513090      -558.1895
   5   2.0000     -20.513080      -558.1893
   6   2.0000     -20.513080      -558.1893
   7   2.0000     -20.513069      -558.1890
   8   2.0000      -1.355755       -36.8920
   9   2.0000      -1.355259       -36.8785
  10   2.0000      -1.355049       -36.8728
  11   2.0000      -1.355049       -36.8728
  12   2.0000      -1.317885       -35.8615
  13   2.0000      -1.301666       -35.4201
  14   2.0000      -1.301666       -35.4201
  15   2.0000      -1.285560       -34.9819
  16   2.0000      -0.723520       -19.6880
  17   2.0000      -0.722810       -19.6686
  18   2.0000      -0.720306       -19.6005
  19   2.0000      -0.720306       -19.6005
  20   2.0000      -0.678356       -18.4590
  21   2.0000      -0.675326       -18.3766
  22   2.0000      -0.673142       -18.3171
  23   2.0000      -0.673142       -18.3171
  24   2.0000      -0.603086       -16.4108
  25   2.0000      -0.595615       -16.2075
  26   2.0000      -0.595615       -16.2075
  27   2.0000      -0.594452       -16.1759
  28   2.0000      -0.569803       -15.5051
  29   2.0000      -0.552524       -15.0349
  30   2.0000      -0.552524       -15.0349
  31   2.0000      -0.537551       -14.6275
  32   2.0000      -0.517167       -14.0728
  33   2.0000      -0.512493       -13.9456
  34   2.0000      -0.512493       -13.9456
  35   2.0000      -0.506929       -13.7942
  36   2.0000      -0.462577       -12.5874
  37   2.0000      -0.461871       -12.5682
  38   2.0000      -0.461871       -12.5682
  39   2.0000      -0.456214       -12.4142
  40   0.0000       0.107772         2.9326
  41   0.0000       0.117854         3.2070
  42   0.0000       0.139248         3.7891
  43   0.0000       0.139248         3.7891
  44   0.0000       0.198464         5.4005

MULLIKEN ATOMIC CHARGES
-----------------------
   0 O :   -0.702315
   1 H :    0.346656
   2 H :    0.367820
   3 O :   -0.702315
   4 H :    0.346656
   5 H :    0.367820
   6 O :   -0.702315
   7 H :    0.346656
   8 H :    0.367820
   9 O :   -0.741302
  10 H :    0.367935
  11 H :    0.361205
  12 O :   -0.741302
  13 H :    0.361205
  14 H :    0.367935
  15 O :   -0.741302
  16 H :    0.367935
  17 H :    0.361205
  18 O :   -0.741302
  19 H :    0.367935
  20 H :    0.361205
  21 O :   -0.702315
  22 H :    0.346656
  23 H :    0.367820
Sum of atomic charges:   -0.0000000

LOEWDIN ATOMIC CHARGES
----------------------
   0 O :   -0.312545
   1 H :    0.160949
   2 H :    0.189432
   3 O :   -0.312545
   4 H :    0.160949
   5 H :    0.189432
   6 O :   -0.312545
   7 H :    0.160949
   8 H :    0.189432
   9 O :   -0.324105
  10 H :    0.146484
  11 H :    0.139785
  12 O :   -0.324105
  13 H :    0.139785
  14 H :    0.146484
  15 O :   -0.324105
  16 H :    0.146484
  17 H :    0.139785
  18 O :   -0.324105
  19 H :    0.146484
  20 H :    0.139785
  21 O :   -0.312545
  22 H :    0.160949
  23 H :    0.189432

  Mayer bond orders larger than 0.100000
B(  0-O ,  1-H ) :   0.8446 B(  0-O ,  2-H ) :   0.8231 B(  3-O ,  4-H ) :   0.8446
B(  3-O ,  5-H ) :   0.8231 B(  6-O ,  7-H ) :   0.8446 B(  6-O ,  8-H ) :   0.8231
B(  9-O , 10-H ) :   0.8158 B(  9-O , 11-H ) :   0.7665 B(  9-O , 17-H ) :   0.1153
B( 11-H , 18-O ) :   0.1153 B( 12-O , 13-H ) :   0.7665 B( 12-O , 14-H ) :   0.8158
B( 12-O , 20-H ) :   0.1153 B( 13-H , 15-O ) :   0.1153 B( 15-O , 16-H ) :   0.8158
B( 15-O , 17-H ) :   0.7665 B( 18-O , 19-H ) :   0.8158 B( 18-O , 20-H ) :   0.7665
B( 21-O , 22-H ) :   0.8446 B( 21-O , 23-H ) :   0.8231

MP2 TOTAL ENERGY:     -610.581757755 Eh
FINAL SINGLE POINT ENERGY      -610.581757755058

DIPOLE MOMENT
-------------
                                X             Y             Z
Electronic contribution:     -0.00000      -0.00000       0.00000
Nuclear contribution   :      0.00000       0.00000       0.00000
                        -----------------------------------------
Total Dipole Moment    :     -0.00000      -0.00000       0.00000
                        -----------------------------------------
Magnitude (a.u.)       :      0.00000
Magnitude (Debye)      :      0.00000

Rotational constants in cm-1:     0.029319     0.019567     0.019567
Rotational constants in MHz :   878.973617   586.596763   586.596763

                             ****ORCA TERMINATED NORMALLY****
TOTAL RUN TIME: 0 days 0 hours 3 minutes 5 seconds 333 msec
