                         Program Version 4.2.0 -  RELEASE  -
|  1> # 12h2o.su.etal.mol0,3,5,7,9,10,11
|  2> ! MP2 def2-TZVP EnGrad TightSCF
|  3>
|  4> %pal
|  5>     nprocs 6
|  6> end
|  7>
|  8> %maxcore 8000
|  9>
| 10> %scf
| 11>     ConvForced true
| 12> end
| 13>
| 14> *xyz 0 1
| 15> O   1.794470000   0.923410000   2.768350000
| 16> H   2.338250000   1.359750000   3.430940000
| 17> H   0.879480000   1.303000000   2.865760000
| 18> O  -1.752130000  -0.741530000  -2.896280000
| 19> H  -2.036450000  -0.920500000  -1.984040000
| 20> H  -0.921210000  -1.242140000  -2.984230000
| 21> O   0.885520000  -1.737840000   0.052730000
| 22> H   1.284090000  -0.839590000   0.017130000
| 23> H   1.032320000  -2.090180000  -0.841890000
| 24> O  -1.737840000  -0.885520000  -0.052730000
| 25> H  -2.090180000  -1.032320000   0.841890000
| 26> H  -0.839590000  -1.284090000  -0.017130000
| 27> O   0.741530000  -1.752130000   2.896280000
| 28> H   0.920500000  -2.036450000   1.984040000
| 29> H   1.242140000  -0.921210000   2.984230000
| 30> O  -0.923410000   1.794470000  -2.768350000
| 31> H  -1.359750000   2.338250000  -3.430940000
| 32> H  -1.303000000   0.879480000  -2.865760000
| 33> O  -0.741530000   1.752130000   2.896280000
| 34> H  -0.920500000   2.036450000   1.984040000
| 35> H  -1.242140000   0.921210000   2.984230000
| 36> *
| 37>
| 38>                          ****END OF INPUT****

CARTESIAN COORDINATES (ANGSTROEM)
---------------------------------
  O      1.794470    0.923410    2.768350
  H      2.338250    1.359750    3.430940
  H      0.879480    1.303000    2.865760
  O     -1.752130   -0.741530   -2.896280
  H     -2.036450   -0.920500   -1.984040
  H     -0.921210   -1.242140   -2.984230
  O      0.885520   -1.737840    0.052730
  H      1.284090   -0.839590    0.017130
  H      1.032320   -2.090180   -0.841890
  O     -1.737840   -0.885520   -0.052730
  H     -2.090180   -1.032320    0.841890
  H     -0.839590   -1.284090   -0.017130
  O      0.741530   -1.752130    2.896280
  H      0.920500   -2.036450    1.984040
  H      1.242140   -0.921210    2.984230
  O     -0.923410    1.794470   -2.768350
  H     -1.359750    2.338250   -3.430940
  H     -1.303000    0.879480   -2.865760
  O     -0.741530    1.752130    2.896280
  H     -0.920500    2.036450    1.984040
  H     -1.242140    0.921210    2.984230

 Total Charge           Charge          ....    0
 Multiplicity           Mult            ....    1
 Number of Electrons    NEL             ....   70
 Basis Dimension        Dim             ....  301

ORBITAL ENERGIES
----------------

  NO   OCC          E(Eh)            E(eV)
   0   2.0000     -20.624766      -561.2284
   1   2.0000     -20.600960      -560.5806
   2   2.0000     -20.575515      -559.8882
   3   2.0000     -20.571052      -559.7668
   4   2.0000     -20.550854      -559.2172
   5   2.0000     -20.521312      -558.4133
   6   2.0000     -20.514298      -558.2224
   7   2.0000      -1.407874       -38.3102
   8   2.0000      -1.386829       -37.7375
   9   2.0000      -1.366243       -37.1774
  10   2.0000      -1.351307       -36.7709
  11   2.0000      -1.335129       -36.3307
  12   2.0000      -1.305962       -35.5370
  13   2.0000      -1.296452       -35.2783
  14   2.0000      -0.765115       -20.8198
  15   2.0000      -0.743235       -20.2244
  16   2.0000      -0.732762       -19.9395
  17   2.0000      -0.721537       -19.6340
  18   2.0000      -0.719899       -19.5894
  19   2.0000      -0.688119       -18.7247
  20   2.0000      -0.684983       -18.6393
  21   2.0000      -0.644441       -17.5361
  22   2.0000      -0.625913       -17.0320
  23   2.0000      -0.616987       -16.7891
  24   2.0000      -0.592348       -16.1186
  25   2.0000      -0.582353       -15.8466
  26   2.0000      -0.558667       -15.2021
  27   2.0000      -0.546253       -14.8643
  28   2.0000      -0.543476       -14.7887
  29   2.0000      -0.529512       -14.4088
  30   2.0000      -0.520515       -14.1639
  31   2.0000      -0.502739       -13.6802
  32   2.0000      -0.498078       -13.5534
  33   2.0000      -0.471112       -12.8196
  34   2.0000      -0.464941       -12.6517
  35   0.0000       0.074856         2.0369
  36   0.0000       0.105417         2.8685
  37   0.0000       0.142924         3.8892
  38   0.0000       0.160376         4.3640
  39   0.0000       0.166982         4.5438

MULLIKEN ATOMIC CHARGES
-----------------------
   0 O :   -0.742994
   1 H :    0.343335
   2 H :    0.380261
   3 O :   -0.686766
   4 H :    0.390179
   5 H :    0.328954
   6 O :   -0.709690
   7 H :    0.384774
   8 H :    0.359592
   9 O :   -0.726769
  10 H :    0.345121
  11 H :    0.356567
  12 O :   -0.732234
  13 H :    0.360180
  14 H :    0.352702
  15 O :   -0.739911
  16 H :    0.323876
  17 H :    0.368740
  18 O :   -0.686598
  19 H :    0.369644
  20 H :    0.361038
Sum of atomic charges:    0.0000000

LOEWDIN ATOMIC CHARGES
----------------------
   0 O :   -0.342088
   1 H :    0.156905
   2 H :    0.145284
   3 O :   -0.274784
   4 H :    0.160636
   5 H :    0.162126
   6 O :   -0.273800
   7 H :    0.190574
   8 H :    0.172534
   9 O :   -0.337487
  10 H :    0.165176
  11 H :    0.142841
  12 O :   -0.355095
  13 H :    0.145499
  14 H :    0.143180
  15 O :   -0.376600
  16 H :    0.147607
  17 H :    0.142090
  18 O :   -0.268764
  19 H :    0.178968
  20 H :    0.175196

  Mayer bond orders larger than 0.100000
B(  0-O ,  1-H ) :   0.8474 B(  0-O ,  2-H ) :   0.7630 B(  3-O ,  4-H ) :   0.7953
B(  3-O ,  5-H ) :   0.8536 B(  6-O ,  7-H ) :   0.8121 B(  6-O ,  8-H ) :   0.8330
B(  9-O , 10-H ) :   0.8449 B(  9-O , 11-H ) :   0.7849 B( 12-O , 13-H ) :   0.8355
B( 12-O , 14-H ) :   0.8118 B( 15-O , 16-H ) :   0.8615 B( 15-O , 17-H ) :   0.7807
B( 18-O , 19-H ) :   0.8289 B( 18-O , 20-H ) :   0.8307

MP2 TOTAL ENERGY:     -534.243724934 Eh
FINAL SINGLE POINT ENERGY      -534.243724934403

DIPOLE MOMENT
-------------
                                X             Y             Z
Electronic contribution:     -0.14642      -0.05045       0.24932
Nuclear contribution   :      0.37518      -0.19504      -0.68611
                        -----------------------------------------
Total Dipole Moment    :      0.22876      -0.24549      -0.43678
                        -----------------------------------------
Magnitude (a.u.)       :      0.55080
Magnitude (Debye)      :      1.40001

Rotational constants in cm-1:     0.044617     0.018407     0.015735
Rotational constants in MHz :  1337.591994   551.820615   471.723711

                             ****ORCA TERMINATED NORMALLY****
TOTAL RUN TIME: 0 days 0 hours 1 minutes 46 seconds 237 msec
