                         Program Version 4.2.0 -  RELEASE  -
|  1> # 12h2o.su.etal.mol0,1,2,4,10
|  2> ! MP2 def2-TZVP EnGrad TightSCF
|  3>
|  4> %pal
|  5>     nprocs 6
|  6> end
|  7>
|  8> %maxcore 8000
|  9>
| 10> %scf
| 11>     ConvForced true
| 12> end
| 13>
| 14> *xyz 0 1
| 15> O   1.794470000   0.923410000   2.768350000
| 16> H   2.338250000   1.359750000   3.430940000
| 17> H   0.879480000   1.303000000   2.865760000
| 18> O  -1.794470000  -0.923410000   2.768350000
| 19> H  -2.338250000  -1.359750000   3.430940000
| 20> H  -0.879480000  -1.303000000   2.865760000
| 21> O   0.923410000  -1.794470000  -2.768350000
| 22> H   1.359750000  -2.338250000  -3.430940000
| 23> H   1.303000000  -0.879480000  -2.865760000
| 24> O  -0.885520000   1.737840000   0.052730000
| 25> H  -1.032320000   2.090180000  -0.841890000
| 26> H  -1.284090000   0.839590000   0.017130000
| 27> O  -0.923410000   1.794470000  -2.768350000
| 28> H  -1.359750000   2.338250000  -3.430940000
| 29> H  -1.303000000   0.879480000  -2.865760000
| 30> *
| 31>
| 32>                          ****END OF INPUT****

CARTESIAN COORDINATES (ANGSTROEM)
---------------------------------
  O      1.794470    0.923410    2.768350
  H      2.338250    1.359750    3.430940
  H      0.879480    1.303000    2.865760
  O     -1.794470   -0.923410    2.768350
  H     -2.338250   -1.359750    3.430940
  H     -0.879480   -1.303000    2.865760
  O      0.923410   -1.794470   -2.768350
  H      1.359750   -2.338250   -3.430940
  H      1.303000   -0.879480   -2.865760
  O     -0.885520    1.737840    0.052730
  H     -1.032320    2.090180   -0.841890
  H     -1.284090    0.839590    0.017130
  O     -0.923410    1.794470   -2.768350
  H     -1.359750    2.338250   -3.430940
  H     -1.303000    0.879480   -2.865760

 Total Charge           Charge          ....    0
 Multiplicity           Mult            ....    1
 Number of Electrons    NEL             ....   50
 Basis Dimension        Dim             ....  215

ORBITAL ENERGIES
----------------

  NO   OCC          E(Eh)            E(eV)
   0   2.0000     -20.585131      -560.1499
   1   2.0000     -20.561407      -559.5043
   2   2.0000     -20.555965      -559.3562
   3   2.0000     -20.542536      -558.9908
   4   2.0000     -20.517133      -558.2996
   5   2.0000      -1.362944       -37.0876
   6   2.0000      -1.336730       -36.3743
   7   2.0000      -1.331269       -36.2257
   8   2.0000      -1.317919       -35.8624
   9   2.0000      -1.296224       -35.2720
  10   2.0000      -0.729764       -19.8579
  11   2.0000      -0.704843       -19.1798
  12   2.0000      -0.699585       -19.0367
  13   2.0000      -0.685721       -18.6594
  14   2.0000      -0.666615       -18.1395
  15   2.0000      -0.598557       -16.2876
  16   2.0000      -0.573020       -15.5927
  17   2.0000      -0.567530       -15.4433
  18   2.0000      -0.554308       -15.0835
  19   2.0000      -0.548867       -14.9354
  20   2.0000      -0.515369       -14.0239
  21   2.0000      -0.504649       -13.7322
  22   2.0000      -0.499331       -13.5875
  23   2.0000      -0.485781       -13.2188
  24   2.0000      -0.462729       -12.5915
  25   0.0000       0.104225         2.8361
  26   0.0000       0.125644         3.4190
  27   0.0000       0.140062         3.8113
  28   0.0000       0.156636         4.2623
  29   0.0000       0.182963         4.9787

MULLIKEN ATOMIC CHARGES
-----------------------
   0 O :   -0.689813
   1 H :    0.330450
   2 H :    0.358135
   3 O :   -0.687222
   4 H :    0.336071
   5 H :    0.352444
   6 O :   -0.688732
   7 H :    0.338024
   8 H :    0.351277
   9 O :   -0.698437
  10 H :    0.359745
  11 H :    0.329068
  12 O :   -0.695706
  13 H :    0.348282
  14 H :    0.356416
Sum of atomic charges:    0.0000000

LOEWDIN ATOMIC CHARGES
----------------------
   0 O :   -0.341214
   1 H :    0.154282
   2 H :    0.185298
   3 O :   -0.339475
   4 H :    0.156974
   5 H :    0.183998
   6 O :   -0.340821
   7 H :    0.157743
   8 H :    0.183339
   9 O :   -0.348133
  10 H :    0.146620
  11 H :    0.165762
  12 O :   -0.311240
  13 H :    0.161624
  14 H :    0.185242

  Mayer bond orders larger than 0.100000
B(  0-O ,  1-H ) :   0.8572 B(  0-O ,  2-H ) :   0.8324 B(  3-O ,  4-H ) :   0.8540
B(  3-O ,  5-H ) :   0.8370 B(  6-O ,  7-H ) :   0.8532 B(  6-O ,  8-H ) :   0.8382
B(  9-O , 10-H ) :   0.8256 B(  9-O , 11-H ) :   0.8532 B( 12-O , 13-H ) :   0.8435
B( 12-O , 14-H ) :   0.8306

MP2 TOTAL ENERGY:     -381.573015606 Eh
FINAL SINGLE POINT ENERGY      -381.573015606150

DIPOLE MOMENT
-------------
                                X             Y             Z
Electronic contribution:      0.08536       0.09636      -0.05363
Nuclear contribution   :     -0.45394      -0.45439      -0.77428
                        -----------------------------------------
Total Dipole Moment    :     -0.36858      -0.35803      -0.82791
                        -----------------------------------------
Magnitude (a.u.)       :      0.97441
Magnitude (Debye)      :      2.47676

Rotational constants in cm-1:     0.047447     0.023335     0.021711
Rotational constants in MHz :  1422.418544   699.572739   650.881521

                             ****ORCA TERMINATED NORMALLY****
TOTAL RUN TIME: 0 days 0 hours 0 minutes 24 seconds 815 msec
