                         Program Version 4.2.0 -  RELEASE  -
|  1> # 12h2o.su.etal.mol0,1,2,4,5,6,8,9,10,11
|  2> ! MP2 def2-TZVP EnGrad TightSCF
|  3>
|  4> %pal
|  5>     nprocs 6
|  6> end
|  7>
|  8> %maxcore 8000
|  9>
| 10> %scf
| 11>     ConvForced true
| 12> end
| 13>
| 14> *xyz 0 1
| 15> O   1.794470000   0.923410000   2.768350000
| 16> H   2.338250000   1.359750000   3.430940000
| 17> H   0.879480000   1.303000000   2.865760000
| 18> O  -1.794470000  -0.923410000   2.768350000
| 19> H  -2.338250000  -1.359750000   3.430940000
| 20> H  -0.879480000  -1.303000000   2.865760000
| 21> O   0.923410000  -1.794470000  -2.768350000
| 22> H   1.359750000  -2.338250000  -3.430940000
| 23> H   1.303000000  -0.879480000  -2.865760000
| 24> O  -0.885520000   1.737840000   0.052730000
| 25> H  -1.032320000   2.090180000  -0.841890000
| 26> H  -1.284090000   0.839590000   0.017130000
| 27> O   0.885520000  -1.737840000   0.052730000
| 28> H   1.284090000  -0.839590000   0.017130000
| 29> H   1.032320000  -2.090180000  -0.841890000
| 30> O   1.737840000   0.885520000  -0.052730000
| 31> H   2.090180000   1.032320000   0.841890000
| 32> H   0.839590000   1.284090000  -0.017130000
| 33> O   1.752130000   0.741530000  -2.896280000
| 34> H   2.036450000   0.920500000  -1.984040000
| 35> H   0.921210000   1.242140000  -2.984230000
| 36> O   0.741530000  -1.752130000   2.896280000
| 37> H   0.920500000  -2.036450000   1.984040000
| 38> H   1.242140000  -0.921210000   2.984230000
| 39> O  -0.923410000   1.794470000  -2.768350000
| 40> H  -1.359750000   2.338250000  -3.430940000
| 41> H  -1.303000000   0.879480000  -2.865760000
| 42> O  -0.741530000   1.752130000   2.896280000
| 43> H  -0.920500000   2.036450000   1.984040000
| 44> H  -1.242140000   0.921210000   2.984230000
| 45> *
| 46>
| 47>                          ****END OF INPUT****

CARTESIAN COORDINATES (ANGSTROEM)
---------------------------------
  O      1.794470    0.923410    2.768350
  H      2.338250    1.359750    3.430940
  H      0.879480    1.303000    2.865760
  O     -1.794470   -0.923410    2.768350
  H     -2.338250   -1.359750    3.430940
  H     -0.879480   -1.303000    2.865760
  O      0.923410   -1.794470   -2.768350
  H      1.359750   -2.338250   -3.430940
  H      1.303000   -0.879480   -2.865760
  O     -0.885520    1.737840    0.052730
  H     -1.032320    2.090180   -0.841890
  H     -1.284090    0.839590    0.017130
  O      0.885520   -1.737840    0.052730
  H      1.284090   -0.839590    0.017130
  H      1.032320   -2.090180   -0.841890
  O      1.737840    0.885520   -0.052730
  H      2.090180    1.032320    0.841890
  H      0.839590    1.284090   -0.017130
  O      1.752130    0.741530   -2.896280
  H      2.036450    0.920500   -1.984040
  H      0.921210    1.242140   -2.984230
  O      0.741530   -1.752130    2.896280
  H      0.920500   -2.036450    1.984040
  H      1.242140   -0.921210    2.984230
  O     -0.923410    1.794470   -2.768350
  H     -1.359750    2.338250   -3.430940
  H     -1.303000    0.879480   -2.865760
  O     -0.741530    1.752130    2.896280
  H     -0.920500    2.036450    1.984040
  H     -1.242140    0.921210    2.984230

 Total Charge           Charge          ....    0
 Multiplicity           Mult            ....    1
 Number of Electrons    NEL             ....  100
 Basis Dimension        Dim             ....  430

ORBITAL ENERGIES
----------------

  NO   OCC          E(Eh)            E(eV)
   0   2.0000     -20.634329      -561.4886
   1   2.0000     -20.599930      -560.5526
   2   2.0000     -20.560604      -559.4825
   3   2.0000     -20.557095      -559.3870
   4   2.0000     -20.554694      -559.3217
   5   2.0000     -20.549849      -559.1898
   6   2.0000     -20.537138      -558.8439
   7   2.0000     -20.532706      -558.7233
   8   2.0000     -20.528587      -558.6112
   9   2.0000     -20.511308      -558.1411
  10   2.0000      -1.415207       -38.5097
  11   2.0000      -1.386493       -37.7284
  12   2.0000      -1.357810       -36.9479
  13   2.0000      -1.353217       -36.8229
  14   2.0000      -1.342738       -36.5378
  15   2.0000      -1.333143       -36.2767
  16   2.0000      -1.327848       -36.1326
  17   2.0000      -1.320527       -35.9334
  18   2.0000      -1.308388       -35.6030
  19   2.0000      -1.294582       -35.2274
  20   2.0000      -0.780352       -21.2344
  21   2.0000      -0.750062       -20.4102
  22   2.0000      -0.727069       -19.7846
  23   2.0000      -0.722277       -19.6542
  24   2.0000      -0.714234       -19.4353
  25   2.0000      -0.710016       -19.3205
  26   2.0000      -0.703704       -19.1488
  27   2.0000      -0.693942       -18.8831
  28   2.0000      -0.688635       -18.7387
  29   2.0000      -0.674254       -18.3474
  30   2.0000      -0.660157       -17.9638
  31   2.0000      -0.633453       -17.2371
  32   2.0000      -0.621175       -16.9030
  33   2.0000      -0.603407       -16.4195
  34   2.0000      -0.590692       -16.0736
  35   2.0000      -0.583345       -15.8736
  36   2.0000      -0.575022       -15.6471
  37   2.0000      -0.564535       -15.3618
  38   2.0000      -0.562108       -15.2957
  39   2.0000      -0.549350       -14.9486
  40   2.0000      -0.537286       -14.6203
  41   2.0000      -0.527861       -14.3638
  42   2.0000      -0.506857       -13.7923
  43   2.0000      -0.500714       -13.6251
  44   2.0000      -0.497233       -13.5304
  45   2.0000      -0.495021       -13.4702
  46   2.0000      -0.484870       -13.1940
  47   2.0000      -0.483062       -13.1448
  48   2.0000      -0.474971       -12.9246
  49   2.0000      -0.462931       -12.5970
  50   0.0000       0.080839         2.1997
  51   0.0000       0.130703         3.5566
  52   0.0000       0.147202         4.0056
  53   0.0000       0.156466         4.2577
  54   0.0000       0.167122         4.5476

MULLIKEN ATOMIC CHARGES
-----------------------
   0 O :   -0.757989
   1 H :    0.349314
   2 H :    0.384467
   3 O :   -0.750155
   4 H :    0.336818
   5 H :    0.386832
   6 O :   -0.745615
   7 H :    0.334486
   8 H :    0.370975
   9 O :   -0.734141
  10 H :    0.386818
  11 H :    0.373938
  12 O :   -0.756382
  13 H :    0.347392
  14 H :    0.369719
  15 O :   -0.752915
  16 H :    0.384736
  17 H :    0.359577
  18 O :   -0.715771
  19 H :    0.390312
  20 H :    0.359722
  21 O :   -0.729419
  22 H :    0.389812
  23 H :    0.362405
  24 O :   -0.727392
  25 H :    0.373054
  26 H :    0.381790
  27 O :   -0.724839
  28 H :    0.380667
  29 H :    0.371785
Sum of atomic charges:   -0.0000000

LOEWDIN ATOMIC CHARGES
----------------------
   0 O :   -0.316088
   1 H :    0.158562
   2 H :    0.146444
   3 O :   -0.345185
   4 H :    0.153652
   5 H :    0.146473
   6 O :   -0.346532
   7 H :    0.152249
   8 H :    0.142648
   9 O :   -0.282649
  10 H :    0.155996
  11 H :    0.183668
  12 O :   -0.353001
  13 H :    0.136366
  14 H :    0.148936
  15 O :   -0.302854
  16 H :    0.153220
  17 H :    0.140725
  18 O :   -0.285840
  19 H :    0.157137
  20 H :    0.146263
  21 O :   -0.291820
  22 H :    0.157891
  23 H :    0.146618
  24 O :   -0.288491
  25 H :    0.172316
  26 H :    0.196589
  27 O :   -0.287897
  28 H :    0.153336
  29 H :    0.151266

  Mayer bond orders larger than 0.100000
B(  0-O ,  1-H ) :   0.8414 B(  0-O ,  2-H ) :   0.7254 B(  2-H , 27-O ) :   0.1252
B(  3-O ,  4-H ) :   0.8506 B(  3-O ,  5-H ) :   0.7347 B(  5-H , 21-O ) :   0.1210
B(  6-O ,  7-H ) :   0.8518 B(  6-O ,  8-H ) :   0.7522 B(  8-H , 18-O ) :   0.1094
B(  9-O , 10-H ) :   0.7975 B(  9-O , 11-H ) :   0.8152 B( 12-O , 13-H ) :   0.7846
B( 12-O , 14-H ) :   0.8077 B( 15-O , 16-H ) :   0.7925 B( 15-O , 17-H ) :   0.7764
B( 18-O , 19-H ) :   0.7962 B( 18-O , 20-H ) :   0.8192 B( 21-O , 22-H ) :   0.7908
B( 21-O , 23-H ) :   0.8068 B( 24-O , 25-H ) :   0.8272 B( 24-O , 26-H ) :   0.8115
B( 27-O , 28-H ) :   0.8122 B( 27-O , 29-H ) :   0.7834

MP2 TOTAL ENERGY:     -763.264156505 Eh
FINAL SINGLE POINT ENERGY      -763.264156505465

DIPOLE MOMENT
-------------
                                X             Y             Z
Electronic contribution:     -0.09494       0.45433      -0.13170
Nuclear contribution   :     -0.90936       1.01960      -1.46039
                        -----------------------------------------
Total Dipole Moment    :     -1.00430       1.47393      -1.59209
                        -----------------------------------------
Magnitude (a.u.)       :      2.39078
Magnitude (Debye)      :      6.07689

Rotational constants in cm-1:     0.025610     0.013387     0.011750
Rotational constants in MHz :   767.782436   401.344287   352.250262

                             ****ORCA TERMINATED NORMALLY****
TOTAL RUN TIME: 0 days 0 hours 7 minutes 49 seconds 300 msec
