                         Program Version 4.2.0 -  RELEASE  -
|  1> # 12h2o.su.etal.mol0,2,3,6,7,10
|  2> ! MP2 def2-TZVP EnGrad TightSCF
|  3>
|  4> %pal
|  5>     nprocs 6
|  6> end
|  7>
|  8> %maxcore 8000
|  9>
| 10> %scf
| 11>     ConvForced true
| 12> end
| 13>
| 14> *xyz 0 1
| 15> O   1.794470000   0.923410000   2.768350000
| 16> H   2.338250000   1.359750000   3.430940000
| 17> H   0.879480000   1.303000000   2.865760000
| 18> O   0.923410000  -1.794470000  -2.768350000
| 19> H   1.359750000  -2.338250000  -3.430940000
| 20> H   1.303000000  -0.879480000  -2.865760000
| 21> O  -1.752130000  -0.741530000  -2.896280000
| 22> H  -2.036450000  -0.920500000  -1.984040000
| 23> H  -0.921210000  -1.242140000  -2.984230000
| 24> O   1.737840000   0.885520000  -0.052730000
| 25> H   2.090180000   1.032320000   0.841890000
| 26> H   0.839590000   1.284090000  -0.017130000
| 27> O  -1.737840000  -0.885520000  -0.052730000
| 28> H  -2.090180000  -1.032320000   0.841890000
| 29> H  -0.839590000  -1.284090000  -0.017130000
| 30> O  -0.923410000   1.794470000  -2.768350000
| 31> H  -1.359750000   2.338250000  -3.430940000
| 32> H  -1.303000000   0.879480000  -2.865760000
| 33> *
| 34>
| 35>                          ****END OF INPUT****

CARTESIAN COORDINATES (ANGSTROEM)
---------------------------------
  O      1.794470    0.923410    2.768350
  H      2.338250    1.359750    3.430940
  H      0.879480    1.303000    2.865760
  O      0.923410   -1.794470   -2.768350
  H      1.359750   -2.338250   -3.430940
  H      1.303000   -0.879480   -2.865760
  O     -1.752130   -0.741530   -2.896280
  H     -2.036450   -0.920500   -1.984040
  H     -0.921210   -1.242140   -2.984230
  O      1.737840    0.885520   -0.052730
  H      2.090180    1.032320    0.841890
  H      0.839590    1.284090   -0.017130
  O     -1.737840   -0.885520   -0.052730
  H     -2.090180   -1.032320    0.841890
  H     -0.839590   -1.284090   -0.017130
  O     -0.923410    1.794470   -2.768350
  H     -1.359750    2.338250   -3.430940
  H     -1.303000    0.879480   -2.865760

 Total Charge           Charge          ....    0
 Multiplicity           Mult            ....    1
 Number of Electrons    NEL             ....   60
 Basis Dimension        Dim             ....  258

ORBITAL ENERGIES
----------------

  NO   OCC          E(Eh)            E(eV)
   0   2.0000     -20.592870      -560.3605
   1   2.0000     -20.579508      -559.9969
   2   2.0000     -20.576639      -559.9188
   3   2.0000     -20.532556      -558.7193
   4   2.0000     -20.526260      -558.5479
   5   2.0000     -20.498904      -557.8035
   6   2.0000      -1.370684       -37.2982
   7   2.0000      -1.358507       -36.9669
   8   2.0000      -1.354490       -36.8576
   9   2.0000      -1.323883       -36.0247
  10   2.0000      -1.305227       -35.5170
  11   2.0000      -1.280210       -34.8363
  12   2.0000      -0.737679       -20.0733
  13   2.0000      -0.721859       -19.6428
  14   2.0000      -0.720667       -19.6104
  15   2.0000      -0.689990       -18.7756
  16   2.0000      -0.675220       -18.3737
  17   2.0000      -0.666313       -18.1313
  18   2.0000      -0.609703       -16.5909
  19   2.0000      -0.606500       -16.5037
  20   2.0000      -0.590156       -16.0590
  21   2.0000      -0.561738       -15.2857
  22   2.0000      -0.557383       -15.1672
  23   2.0000      -0.527840       -14.3633
  24   2.0000      -0.524080       -14.2609
  25   2.0000      -0.522575       -14.2200
  26   2.0000      -0.512487       -13.9455
  27   2.0000      -0.472056       -12.8453
  28   2.0000      -0.471378       -12.8269
  29   2.0000      -0.449757       -12.2385
  30   0.0000       0.095242         2.5917
  31   0.0000       0.122167         3.3243
  32   0.0000       0.137203         3.7335
  33   0.0000       0.174904         4.7594
  34   0.0000       0.178804         4.8655

MULLIKEN ATOMIC CHARGES
-----------------------
   0 O :   -0.692545
   1 H :    0.351750
   2 H :    0.350147
   3 O :   -0.707654
   4 H :    0.349894
   5 H :    0.380621
   6 O :   -0.717687
   7 H :    0.379037
   8 H :    0.360041
   9 O :   -0.705486
  10 H :    0.361565
  11 H :    0.335459
  12 O :   -0.701025
  13 H :    0.344250
  14 H :    0.363664
  15 O :   -0.738490
  16 H :    0.317599
  17 H :    0.368859
Sum of atomic charges:   -0.0000000

LOEWDIN ATOMIC CHARGES
----------------------
   0 O :   -0.310699
   1 H :    0.163052
   2 H :    0.183558
   3 O :   -0.313152
   4 H :    0.162614
   5 H :    0.195412
   6 O :   -0.289525
   7 H :    0.155751
   8 H :    0.147703
   9 O :   -0.348729
  10 H :    0.147167
  11 H :    0.166489
  12 O :   -0.318534
  13 H :    0.168511
  14 H :    0.180372
  15 O :   -0.376956
  16 H :    0.145094
  17 H :    0.141870

  Mayer bond orders larger than 0.100000
B(  0-O ,  1-H ) :   0.8419 B(  0-O ,  2-H ) :   0.8370 B(  3-O ,  4-H ) :   0.8432
B(  3-O ,  5-H ) :   0.8141 B(  6-O ,  7-H ) :   0.8107 B(  6-O ,  8-H ) :   0.8081
B(  6-O , 17-H ) :   0.1039 B(  9-O , 10-H ) :   0.8236 B(  9-O , 11-H ) :   0.8461
B( 12-O , 13-H ) :   0.8456 B( 12-O , 14-H ) :   0.8261 B( 15-O , 16-H ) :   0.8640
B( 15-O , 17-H ) :   0.7680

MP2 TOTAL ENERGY:     -457.914390677 Eh
FINAL SINGLE POINT ENERGY      -457.914390676804

DIPOLE MOMENT
-------------
                                X             Y             Z
Electronic contribution:      0.13765      -0.40331       0.08212
Nuclear contribution   :      0.14599       0.11349       1.60207
                        -----------------------------------------
Total Dipole Moment    :      0.28364      -0.28982       1.68419
                        -----------------------------------------
Magnitude (a.u.)       :      1.73232
Magnitude (Debye)      :      4.40321

Rotational constants in cm-1:     0.055460     0.022387     0.022185
Rotational constants in MHz :  1662.658219   671.140257   665.086285

                             ****ORCA TERMINATED NORMALLY****
TOTAL RUN TIME: 0 days 0 hours 1 minutes 12 seconds 247 msec
