                         Program Version 4.2.0 -  RELEASE  -
|  1> # 12h2o.su.etal.mol1,3,5,6,7,9,10
|  2> ! MP2 def2-TZVP EnGrad TightSCF
|  3>
|  4> %pal
|  5>     nprocs 6
|  6> end
|  7>
|  8> %maxcore 8000
|  9>
| 10> %scf
| 11>     ConvForced true
| 12> end
| 13>
| 14> *xyz 0 1
| 15> O  -1.794470000  -0.923410000   2.768350000
| 16> H  -2.338250000  -1.359750000   3.430940000
| 17> H  -0.879480000  -1.303000000   2.865760000
| 18> O  -1.752130000  -0.741530000  -2.896280000
| 19> H  -2.036450000  -0.920500000  -1.984040000
| 20> H  -0.921210000  -1.242140000  -2.984230000
| 21> O   0.885520000  -1.737840000   0.052730000
| 22> H   1.284090000  -0.839590000   0.017130000
| 23> H   1.032320000  -2.090180000  -0.841890000
| 24> O   1.737840000   0.885520000  -0.052730000
| 25> H   2.090180000   1.032320000   0.841890000
| 26> H   0.839590000   1.284090000  -0.017130000
| 27> O  -1.737840000  -0.885520000  -0.052730000
| 28> H  -2.090180000  -1.032320000   0.841890000
| 29> H  -0.839590000  -1.284090000  -0.017130000
| 30> O   0.741530000  -1.752130000   2.896280000
| 31> H   0.920500000  -2.036450000   1.984040000
| 32> H   1.242140000  -0.921210000   2.984230000
| 33> O  -0.923410000   1.794470000  -2.768350000
| 34> H  -1.359750000   2.338250000  -3.430940000
| 35> H  -1.303000000   0.879480000  -2.865760000
| 36> *
| 37>
| 38>                          ****END OF INPUT****

CARTESIAN COORDINATES (ANGSTROEM)
---------------------------------
  O     -1.794470   -0.923410    2.768350
  H     -2.338250   -1.359750    3.430940
  H     -0.879480   -1.303000    2.865760
  O     -1.752130   -0.741530   -2.896280
  H     -2.036450   -0.920500   -1.984040
  H     -0.921210   -1.242140   -2.984230
  O      0.885520   -1.737840    0.052730
  H      1.284090   -0.839590    0.017130
  H      1.032320   -2.090180   -0.841890
  O      1.737840    0.885520   -0.052730
  H      2.090180    1.032320    0.841890
  H      0.839590    1.284090   -0.017130
  O     -1.737840   -0.885520   -0.052730
  H     -2.090180   -1.032320    0.841890
  H     -0.839590   -1.284090   -0.017130
  O      0.741530   -1.752130    2.896280
  H      0.920500   -2.036450    1.984040
  H      1.242140   -0.921210    2.984230
  O     -0.923410    1.794470   -2.768350
  H     -1.359750    2.338250   -3.430940
  H     -1.303000    0.879480   -2.865760

 Total Charge           Charge          ....    0
 Multiplicity           Mult            ....    1
 Number of Electrons    NEL             ....   70
 Basis Dimension        Dim             ....  301

ORBITAL ENERGIES
----------------

  NO   OCC          E(Eh)            E(eV)
   0   2.0000     -20.607274      -560.7524
   1   2.0000     -20.598825      -560.5225
   2   2.0000     -20.591701      -560.3287
   3   2.0000     -20.560262      -559.4732
   4   2.0000     -20.543444      -559.0155
   5   2.0000     -20.527497      -558.5816
   6   2.0000     -20.506227      -558.0028
   7   2.0000      -1.396151       -37.9912
   8   2.0000      -1.382647       -37.6237
   9   2.0000      -1.375726       -37.4354
  10   2.0000      -1.349928       -36.7334
  11   2.0000      -1.329022       -36.1645
  12   2.0000      -1.311134       -35.6778
  13   2.0000      -1.288080       -35.0504
  14   2.0000      -0.756484       -20.5850
  15   2.0000      -0.744019       -20.2458
  16   2.0000      -0.739625       -20.1262
  17   2.0000      -0.713649       -19.4194
  18   2.0000      -0.710702       -19.3392
  19   2.0000      -0.693119       -18.8607
  20   2.0000      -0.675602       -18.3841
  21   2.0000      -0.651440       -17.7266
  22   2.0000      -0.621434       -16.9101
  23   2.0000      -0.607740       -16.5374
  24   2.0000      -0.599047       -16.3009
  25   2.0000      -0.582114       -15.8401
  26   2.0000      -0.560482       -15.2515
  27   2.0000      -0.545024       -14.8309
  28   2.0000      -0.538102       -14.6425
  29   2.0000      -0.526948       -14.3390
  30   2.0000      -0.523444       -14.2436
  31   2.0000      -0.493064       -13.4170
  32   2.0000      -0.490403       -13.3445
  33   2.0000      -0.478739       -13.0272
  34   2.0000      -0.456740       -12.4285
  35   0.0000       0.076692         2.0869
  36   0.0000       0.109378         2.9763
  37   0.0000       0.149262         4.0616
  38   0.0000       0.161485         4.3942
  39   0.0000       0.179758         4.8915

MULLIKEN ATOMIC CHARGES
-----------------------
   0 O :   -0.737373
   1 H :    0.336216
   2 H :    0.370494
   3 O :   -0.692314
   4 H :    0.392493
   5 H :    0.327481
   6 O :   -0.735183
   7 H :    0.370457
   8 H :    0.358966
   9 O :   -0.685444
  10 H :    0.345134
  11 H :    0.389512
  12 O :   -0.746946
  13 H :    0.375854
  14 H :    0.335174
  15 O :   -0.687312
  16 H :    0.390356
  17 H :    0.338576
  18 O :   -0.740258
  19 H :    0.322091
  20 H :    0.372027
Sum of atomic charges:   -0.0000000

LOEWDIN ATOMIC CHARGES
----------------------
   0 O :   -0.341176
   1 H :    0.153467
   2 H :    0.143540
   3 O :   -0.278391
   4 H :    0.160151
   5 H :    0.161079
   6 O :   -0.296966
   7 H :    0.146564
   8 H :    0.170942
   9 O :   -0.283300
  10 H :    0.167178
  11 H :    0.192394
  12 O :   -0.348495
  13 H :    0.151776
  14 H :    0.133233
  15 O :   -0.271856
  16 H :    0.159460
  17 H :    0.166650
  18 O :   -0.376680
  19 H :    0.147311
  20 H :    0.143119

  Mayer bond orders larger than 0.100000
B(  0-O ,  1-H ) :   0.8510 B(  0-O ,  2-H ) :   0.7656 B(  3-O ,  4-H ) :   0.7863
B(  3-O ,  5-H ) :   0.8544 B(  6-O ,  7-H ) :   0.7568 B(  6-O ,  8-H ) :   0.8355
B(  7-H ,  9-O ) :   0.1042 B(  9-O , 10-H ) :   0.8436 B(  9-O , 11-H ) :   0.8079
B( 12-O , 13-H ) :   0.8025 B( 12-O , 14-H ) :   0.7990 B( 15-O , 16-H ) :   0.7991
B( 15-O , 17-H ) :   0.8475 B( 18-O , 19-H ) :   0.8622 B( 18-O , 20-H ) :   0.7755

MP2 TOTAL ENERGY:     -534.253283231 Eh
FINAL SINGLE POINT ENERGY      -534.253283231392

DIPOLE MOMENT
-------------
                                X             Y             Z
Electronic contribution:      0.25112      -0.04596       0.12586
Nuclear contribution   :      1.10440      -0.64442       0.77428
                        -----------------------------------------
Total Dipole Moment    :      1.35552      -0.69038       0.90014
                        -----------------------------------------
Magnitude (a.u.)       :      1.76758
Magnitude (Debye)      :      4.49283

Rotational constants in cm-1:     0.048595     0.021588     0.018501
Rotational constants in MHz :  1456.829076   647.203153   554.657861

                             ****ORCA TERMINATED NORMALLY****
TOTAL RUN TIME: 0 days 0 hours 2 minutes 13 seconds 832 msec
