                         Program Version 4.2.0 -  RELEASE  -
|  1> ! MP2 def2-TZVP EnGrad TightSCF FrozenCore
|  2>
|  3> %pal
|  4>     nprocs 12
|  5> end
|  6>
|  7> %maxcore 8000
|  8>
|  9> %scf
| 10>     ConvForced true
| 11> end
| 12>
| 13> *xyz 0 1
| 14> O    -1.3174122509    -0.6029621507    -1.8142327139
| 15> H    -0.3929224791    -0.7797463328    -1.5349747382
| 16> C    -1.3006779416    -0.1206589227    -3.1514336747
| 17> H    -2.3326729569     0.1131380545    -3.4262401938
| 18> H    -0.921504091     -0.8792126191    -3.8499090017
| 19> H    -0.6948244112     0.79127654      -3.2629933324
| 20> O    -1.1653960723     1.0090347703     0.4072063486
| 21> H    -1.5327614812     0.5211426985    -0.3665660166
| 22> C    -1.4375918557     2.3959867318     0.2536486883
| 23> H    -0.9772624113     2.915094285      1.098311417
| 24> H    -2.5172243237     2.5978189685     0.2710076568
| 25> H    -1.019603327      2.8059728632    -0.6779809948
| 26> O     1.022405059     -0.4186791135    -0.3273982882
| 27> H     0.4243758123     0.2385355087     0.1075000094
| 28> C     2.3092737852     0.1752412961    -0.5123172046
| 29> H     2.9224632525    -0.5417757103    -1.0636416239
| 30> H     2.7839946375     0.3764865361     0.455063782
| 31> H     2.2476924159     1.1061152894    -1.0923433481
| 32> O     1.5701651104    -1.3730269886     2.2885039323
| 33> H     1.3227512316    -1.3544302498     1.3452017987
| 34> C     0.3714933539    -1.2888533524     3.0388620548
| 35> H     0.6499108362    -1.1163765539     4.0837023619
| 36> H    -0.2199013185    -2.2187144267     2.9967806403
| 37> H    -0.2755902072    -0.4605515074     2.711888169
| 38> *
| 39>
| 40>                          ****END OF INPUT****

CARTESIAN COORDINATES (ANGSTROEM)
---------------------------------
  O     -1.317412   -0.602962   -1.814233
  H     -0.392922   -0.779746   -1.534975
  C     -1.300678   -0.120659   -3.151434
  H     -2.332673    0.113138   -3.426240
  H     -0.921504   -0.879213   -3.849909
  H     -0.694824    0.791277   -3.262993
  O     -1.165396    1.009035    0.407206
  H     -1.532761    0.521143   -0.366566
  C     -1.437592    2.395987    0.253649
  H     -0.977262    2.915094    1.098311
  H     -2.517224    2.597819    0.271008
  H     -1.019603    2.805973   -0.677981
  O      1.022405   -0.418679   -0.327398
  H      0.424376    0.238536    0.107500
  C      2.309274    0.175241   -0.512317
  H      2.922463   -0.541776   -1.063642
  H      2.783995    0.376487    0.455064
  H      2.247692    1.106115   -1.092343
  O      1.570165   -1.373027    2.288504
  H      1.322751   -1.354430    1.345202
  C      0.371493   -1.288853    3.038862
  H      0.649911   -1.116377    4.083702
  H     -0.219901   -2.218714    2.996781
  H     -0.275590   -0.460552    2.711888

 Total Charge           Charge          ....    0
 Multiplicity           Mult            ....    1
 Number of Electrons    NEL             ....   72
 Basis Dimension        Dim             ....  344

ORBITAL ENERGIES
----------------

  NO   OCC          E(Eh)            E(eV)
   0   2.0000     -20.567067      -559.6583
   1   2.0000     -20.563605      -559.5641
   2   2.0000     -20.563320      -559.5564
   3   2.0000     -20.525444      -558.5257
   4   2.0000     -11.281571      -306.9871
   5   2.0000     -11.281400      -306.9825
   6   2.0000     -11.278790      -306.9115
   7   2.0000     -11.248846      -306.0967
   8   2.0000      -1.378645       -37.5148
   9   2.0000      -1.359050       -36.9816
  10   2.0000      -1.356454       -36.9110
  11   2.0000      -1.325787       -36.0765
  12   2.0000      -0.942143       -25.6370
  13   2.0000      -0.928220       -25.2582
  14   2.0000      -0.927457       -25.2374
  15   2.0000      -0.897481       -24.4217
  16   2.0000      -0.706834       -19.2339
  17   2.0000      -0.704483       -19.1700
  18   2.0000      -0.702572       -19.1180
  19   2.0000      -0.673335       -18.3224
  20   2.0000      -0.630734       -17.1631
  21   2.0000      -0.623367       -16.9627
  22   2.0000      -0.621611       -16.9149
  23   2.0000      -0.613091       -16.6831
  24   2.0000      -0.598826       -16.2949
  25   2.0000      -0.597888       -16.2694
  26   2.0000      -0.591188       -16.0871
  27   2.0000      -0.567108       -15.4318
  28   2.0000      -0.522621       -14.2212
  29   2.0000      -0.519835       -14.1454
  30   2.0000      -0.504220       -13.7205
  31   2.0000      -0.483953       -13.1690
  32   2.0000      -0.464164       -12.6305
  33   2.0000      -0.454092       -12.3565
  34   2.0000      -0.453205       -12.3323
  35   2.0000      -0.422523       -11.4974
  36   0.0000       0.113820         3.0972
  37   0.0000       0.159603         4.3430
  38   0.0000       0.161234         4.3874
  39   0.0000       0.165248         4.4966
  40   0.0000       0.189941         5.1685

MULLIKEN ATOMIC CHARGES
-----------------------
   0 O :   -0.543810
   1 H :    0.364262
   2 C :   -0.179143
   3 H :    0.132333
   4 H :    0.125494
   5 H :    0.109648
   6 O :   -0.543549
   7 H :    0.365774
   8 C :   -0.178189
   9 H :    0.135693
  10 H :    0.125136
  11 H :    0.110605
  12 O :   -0.597258
  13 H :    0.373109
  14 C :   -0.188389
  15 H :    0.134429
  16 H :    0.151724
  17 H :    0.116827
  18 O :   -0.513466
  19 H :    0.344844
  20 C :   -0.187593
  21 H :    0.117714
  22 H :    0.104176
  23 H :    0.119629
Sum of atomic charges:   -0.0000000

LOEWDIN ATOMIC CHARGES
----------------------
   0 O :   -0.087110
   1 H :    0.170395
   2 C :   -0.383741
   3 H :    0.110605
   4 H :    0.103374
   5 H :    0.096181
   6 O :   -0.084875
   7 H :    0.170447
   8 C :   -0.382303
   9 H :    0.111303
  10 H :    0.103735
  11 H :    0.096863
  12 O :   -0.097764
  13 H :    0.168555
  14 C :   -0.378285
  15 H :    0.111602
  16 H :    0.108489
  17 H :    0.099463
  18 O :   -0.098896
  19 H :    0.163739
  20 C :   -0.396839
  21 H :    0.105257
  22 H :    0.094256
  23 H :    0.095548

  Mayer bond orders larger than 0.100000
B(  0-O ,  1-H ) :   0.7868 B(  0-O ,  2-C ) :   0.8932 B(  2-C ,  3-H ) :   0.9416
B(  2-C ,  4-H ) :   0.9402 B(  2-C ,  5-H ) :   0.9340 B(  6-O ,  7-H ) :   0.7738
B(  6-O ,  8-C ) :   0.8937 B(  8-C ,  9-H ) :   0.9422 B(  8-C , 10-H ) :   0.9391
B(  8-C , 11-H ) :   0.9331 B( 12-O , 13-H ) :   0.7447 B( 12-O , 14-C ) :   0.8545
B( 14-C , 15-H ) :   0.9421 B( 14-C , 16-H ) :   0.9353 B( 14-C , 17-H ) :   0.9360
B( 18-O , 19-H ) :   0.8127 B( 18-O , 20-C ) :   0.9387 B( 20-C , 21-H ) :   0.9395
B( 20-C , 22-H ) :   0.9427 B( 20-C , 23-H ) :   0.9316

MP2 TOTAL ENERGY:     -462.068760418 Eh
FINAL SINGLE POINT ENERGY      -462.068760418143

DIPOLE MOMENT
-------------
                                X             Y             Z
Electronic contribution:      0.26445      -3.12567       1.08848
Nuclear contribution   :     -0.56059       4.31817      -2.31733
                        -----------------------------------------
Total Dipole Moment    :     -0.29614       1.19250      -1.22885
                        -----------------------------------------
Magnitude (a.u.)       :      1.73776
Magnitude (Debye)      :      4.41705

Rotational constants in cm-1:     0.050611     0.025192     0.021529
Rotational constants in MHz :  1517.270421   755.242065   645.421643

                             ****ORCA TERMINATED NORMALLY****
TOTAL RUN TIME: 0 days 0 hours 4 minutes 53 seconds 105 msec
