                         Program Version 4.2.0 -  RELEASE  -
|  1> # 12h2o.su.etal.mol0,1,2,7,8
|  2> ! MP2 def2-TZVP EnGrad TightSCF
|  3>
|  4> %pal
|  5>     nprocs 6
|  6> end
|  7>
|  8> %maxcore 8000
|  9>
| 10> %scf
| 11>     ConvForced true
| 12> end
| 13>
| 14> *xyz 0 1
| 15> O   1.794470000   0.923410000   2.768350000
| 16> H   2.338250000   1.359750000   3.430940000
| 17> H   0.879480000   1.303000000   2.865760000
| 18> O  -1.794470000  -0.923410000   2.768350000
| 19> H  -2.338250000  -1.359750000   3.430940000
| 20> H  -0.879480000  -1.303000000   2.865760000
| 21> O   0.923410000  -1.794470000  -2.768350000
| 22> H   1.359750000  -2.338250000  -3.430940000
| 23> H   1.303000000  -0.879480000  -2.865760000
| 24> O  -1.737840000  -0.885520000  -0.052730000
| 25> H  -2.090180000  -1.032320000   0.841890000
| 26> H  -0.839590000  -1.284090000  -0.017130000
| 27> O   1.752130000   0.741530000  -2.896280000
| 28> H   2.036450000   0.920500000  -1.984040000
| 29> H   0.921210000   1.242140000  -2.984230000
| 30> *
| 31>
| 32>                          ****END OF INPUT****

CARTESIAN COORDINATES (ANGSTROEM)
---------------------------------
  O      1.794470    0.923410    2.768350
  H      2.338250    1.359750    3.430940
  H      0.879480    1.303000    2.865760
  O     -1.794470   -0.923410    2.768350
  H     -2.338250   -1.359750    3.430940
  H     -0.879480   -1.303000    2.865760
  O      0.923410   -1.794470   -2.768350
  H      1.359750   -2.338250   -3.430940
  H      1.303000   -0.879480   -2.865760
  O     -1.737840   -0.885520   -0.052730
  H     -2.090180   -1.032320    0.841890
  H     -0.839590   -1.284090   -0.017130
  O      1.752130    0.741530   -2.896280
  H      2.036450    0.920500   -1.984040
  H      0.921210    1.242140   -2.984230

 Total Charge           Charge          ....    0
 Multiplicity           Mult            ....    1
 Number of Electrons    NEL             ....   50
 Basis Dimension        Dim             ....  215

ORBITAL ENERGIES
----------------

  NO   OCC          E(Eh)            E(eV)
   0   2.0000     -20.588817      -560.2502
   1   2.0000     -20.588540      -560.2426
   2   2.0000     -20.572454      -559.8049
   3   2.0000     -20.518667      -558.3413
   4   2.0000     -20.510281      -558.1131
   5   2.0000      -1.373844       -37.3842
   6   2.0000      -1.366647       -37.1883
   7   2.0000      -1.347763       -36.6745
   8   2.0000      -1.297834       -35.3159
   9   2.0000      -1.292542       -35.1719
  10   2.0000      -0.733565       -19.9613
  11   2.0000      -0.731355       -19.9012
  12   2.0000      -0.715839       -19.4790
  13   2.0000      -0.683352       -18.5950
  14   2.0000      -0.668326       -18.1861
  15   2.0000      -0.609082       -16.5740
  16   2.0000      -0.602040       -16.3823
  17   2.0000      -0.584215       -15.8973
  18   2.0000      -0.551418       -15.0049
  19   2.0000      -0.549743       -14.9593
  20   2.0000      -0.518105       -14.0983
  21   2.0000      -0.515589       -14.0299
  22   2.0000      -0.506328       -13.7779
  23   2.0000      -0.464518       -12.6402
  24   2.0000      -0.460450       -12.5295
  25   0.0000       0.097245         2.6462
  26   0.0000       0.120460         3.2779
  27   0.0000       0.132892         3.6162
  28   0.0000       0.176941         4.8148
  29   0.0000       0.184176         5.0117

MULLIKEN ATOMIC CHARGES
-----------------------
   0 O :   -0.691667
   1 H :    0.341302
   2 H :    0.350855
   3 O :   -0.697676
   4 H :    0.349889
   5 H :    0.356129
   6 O :   -0.726566
   7 H :    0.321928
   8 H :    0.363936
   9 O :   -0.699218
  10 H :    0.358927
  11 H :    0.328833
  12 O :   -0.681641
  13 H :    0.361008
  14 H :    0.363959
Sum of atomic charges:    0.0000000

LOEWDIN ATOMIC CHARGES
----------------------
   0 O :   -0.341998
   1 H :    0.159187
   2 H :    0.183016
   3 O :   -0.312203
   4 H :    0.162331
   5 H :    0.185006
   6 O :   -0.369940
   7 H :    0.147588
   8 H :    0.141823
   9 O :   -0.349179
  10 H :    0.146023
  11 H :    0.165577
  12 O :   -0.272167
  13 H :    0.176029
  14 H :    0.178906

  Mayer bond orders larger than 0.100000
B(  0-O ,  1-H ) :   0.8514 B(  0-O ,  2-H ) :   0.8383 B(  3-O ,  4-H ) :   0.8426
B(  3-O ,  5-H ) :   0.8309 B(  6-O ,  7-H ) :   0.8620 B(  6-O ,  8-H ) :   0.7883
B(  9-O , 10-H ) :   0.8267 B(  9-O , 11-H ) :   0.8527 B( 12-O , 13-H ) :   0.8354
B( 12-O , 14-H ) :   0.8333

MP2 TOTAL ENERGY:     -381.579773035 Eh
FINAL SINGLE POINT ENERGY      -381.579773035383

DIPOLE MOMENT
-------------
                                X             Y             Z
Electronic contribution:     -0.05410       0.25558      -0.17301
Nuclear contribution   :      0.67857       0.42069       2.09298
                        -----------------------------------------
Total Dipole Moment    :      0.62447       0.67627       1.91997
                        -----------------------------------------
Magnitude (a.u.)       :      2.12922
Magnitude (Debye)      :      5.41205

Rotational constants in cm-1:     0.057501     0.025423     0.019132
Rotational constants in MHz :  1723.822552   762.164861   573.554254

                             ****ORCA TERMINATED NORMALLY****
TOTAL RUN TIME: 0 days 0 hours 0 minutes 38 seconds 263 msec
