                         Program Version 4.2.0 -  RELEASE  -
|  1> # 12h2o.su.etal.mol0,1,2,4,7
|  2> ! MP2 def2-TZVP EnGrad TightSCF
|  3>
|  4> %pal
|  5>     nprocs 6
|  6> end
|  7>
|  8> %maxcore 8000
|  9>
| 10> %scf
| 11>     ConvForced true
| 12> end
| 13>
| 14> *xyz 0 1
| 15> O   1.794470000   0.923410000   2.768350000
| 16> H   2.338250000   1.359750000   3.430940000
| 17> H   0.879480000   1.303000000   2.865760000
| 18> O  -1.794470000  -0.923410000   2.768350000
| 19> H  -2.338250000  -1.359750000   3.430940000
| 20> H  -0.879480000  -1.303000000   2.865760000
| 21> O   0.923410000  -1.794470000  -2.768350000
| 22> H   1.359750000  -2.338250000  -3.430940000
| 23> H   1.303000000  -0.879480000  -2.865760000
| 24> O  -0.885520000   1.737840000   0.052730000
| 25> H  -1.032320000   2.090180000  -0.841890000
| 26> H  -1.284090000   0.839590000   0.017130000
| 27> O  -1.737840000  -0.885520000  -0.052730000
| 28> H  -2.090180000  -1.032320000   0.841890000
| 29> H  -0.839590000  -1.284090000  -0.017130000
| 30> *
| 31>
| 32>                          ****END OF INPUT****

CARTESIAN COORDINATES (ANGSTROEM)
---------------------------------
  O      1.794470    0.923410    2.768350
  H      2.338250    1.359750    3.430940
  H      0.879480    1.303000    2.865760
  O     -1.794470   -0.923410    2.768350
  H     -2.338250   -1.359750    3.430940
  H     -0.879480   -1.303000    2.865760
  O      0.923410   -1.794470   -2.768350
  H      1.359750   -2.338250   -3.430940
  H      1.303000   -0.879480   -2.865760
  O     -0.885520    1.737840    0.052730
  H     -1.032320    2.090180   -0.841890
  H     -1.284090    0.839590    0.017130
  O     -1.737840   -0.885520   -0.052730
  H     -2.090180   -1.032320    0.841890
  H     -0.839590   -1.284090   -0.017130

 Total Charge           Charge          ....    0
 Multiplicity           Mult            ....    1
 Number of Electrons    NEL             ....   50
 Basis Dimension        Dim             ....  215

ORBITAL ENERGIES
----------------

  NO   OCC          E(Eh)            E(eV)
   0   2.0000     -20.591459      -560.3221
   1   2.0000     -20.561187      -559.4983
   2   2.0000     -20.552783      -559.2697
   3   2.0000     -20.550999      -559.2211
   4   2.0000     -20.510129      -558.1090
   5   2.0000      -1.369648       -37.2700
   6   2.0000      -1.336483       -36.3676
   7   2.0000      -1.334628       -36.3171
   8   2.0000      -1.328150       -36.1408
   9   2.0000      -1.290769       -35.1236
  10   2.0000      -0.736143       -20.0315
  11   2.0000      -0.704934       -19.1822
  12   2.0000      -0.698161       -18.9979
  13   2.0000      -0.696080       -18.9413
  14   2.0000      -0.665228       -18.1018
  15   2.0000      -0.610545       -16.6138
  16   2.0000      -0.576746       -15.6941
  17   2.0000      -0.572826       -15.5874
  18   2.0000      -0.564839       -15.3700
  19   2.0000      -0.542330       -14.7576
  20   2.0000      -0.527389       -14.3510
  21   2.0000      -0.504350       -13.7241
  22   2.0000      -0.496168       -13.5014
  23   2.0000      -0.486826       -13.2472
  24   2.0000      -0.458527       -12.4771
  25   0.0000       0.101436         2.7602
  26   0.0000       0.124157         3.3785
  27   0.0000       0.144310         3.9269
  28   0.0000       0.169605         4.6152
  29   0.0000       0.180712         4.9174

MULLIKEN ATOMIC CHARGES
-----------------------
   0 O :   -0.692615
   1 H :    0.334125
   2 H :    0.357507
   3 O :   -0.697605
   4 H :    0.352123
   5 H :    0.359661
   6 O :   -0.684223
   7 H :    0.338656
   8 H :    0.347226
   9 O :   -0.721328
  10 H :    0.320884
  11 H :    0.360444
  12 O :   -0.697166
  13 H :    0.373383
  14 H :    0.348930
Sum of atomic charges:   -0.0000000

LOEWDIN ATOMIC CHARGES
----------------------
   0 O :   -0.342425
   1 H :    0.156048
   2 H :    0.185040
   3 O :   -0.309833
   4 H :    0.163575
   5 H :    0.186872
   6 O :   -0.339153
   7 H :    0.158016
   8 H :    0.182824
   9 O :   -0.366692
  10 H :    0.155293
  11 H :    0.142740
  12 O :   -0.297880
  13 H :    0.151330
  14 H :    0.174245

  Mayer bond orders larger than 0.100000
B(  0-O ,  1-H ) :   0.8553 B(  0-O ,  2-H ) :   0.8327 B(  3-O ,  4-H ) :   0.8416
B(  3-O ,  5-H ) :   0.8286 B(  6-O ,  7-H ) :   0.8529 B(  6-O ,  8-H ) :   0.8423
B(  9-O , 10-H ) :   0.8621 B(  9-O , 11-H ) :   0.7900 B( 12-O , 13-H ) :   0.8076
B( 12-O , 14-H ) :   0.8379

MP2 TOTAL ENERGY:     -381.582789748 Eh
FINAL SINGLE POINT ENERGY      -381.582789747784

DIPOLE MOMENT
-------------
                                X             Y             Z
Electronic contribution:     -0.20911      -0.16971       0.06834
Nuclear contribution   :      0.67960      -0.59936       0.63259
                        -----------------------------------------
Total Dipole Moment    :      0.47049      -0.76906       0.70093
                        -----------------------------------------
Magnitude (a.u.)       :      1.14198
Magnitude (Debye)      :      2.90268

Rotational constants in cm-1:     0.054109     0.030851     0.026216
Rotational constants in MHz :  1622.153111   924.898995   785.947095

                             ****ORCA TERMINATED NORMALLY****
TOTAL RUN TIME: 0 days 0 hours 0 minutes 53 seconds 468 msec
