                         Program Version 3.0.3 - RELEASE   -
|  1> ! B3LYP Def2-SVP def2-SVP/J RIJCOSX TightSCF Grid4 D3BJ OPT
|  2>
|  3> %pal nprocs 12 end
|  4>
|  5> %scf
|  6>         maxiter 400
|  7> end
|  8>
|  9> * xyz  0  1
| 10>   O      1.867911   -0.281618   -0.361414
| 11>   H      2.613905   -0.185777   -0.953478
| 12>   H      1.111748   -0.373568   -0.941065
| 13>   O     -0.417740   -0.452165   -1.836270
| 14>   H     -0.929509   -1.104664   -2.314359
| 15>   H     -1.000721   -0.154626   -1.137817
| 16>   O     -1.867923    0.281029    0.361768
| 17>   H     -1.111683    0.373431    0.941247
| 18>   H     -2.613590    0.183669    0.953996
| 19>   O      0.417806    0.452767    1.836284
| 20>   H      1.000769    0.154691    1.138046
| 21>   H      0.928997    1.106824    2.312860
| 22> **                         ****END OF INPUT****
 Total Charge           Charge          ....    0
 Multiplicity           Mult            ....    1
 Number of Electrons    NEL             ....   40
Dispersion correction           -0.007528471
FINAL SINGLE POINT ENERGY      -305.351663571961
Dispersion correction            ...
Dispersion correction           -0.007473701
FINAL SINGLE POINT ENERGY      -305.354552214125
Dispersion correction            ...
Dispersion correction           -0.007599329
FINAL SINGLE POINT ENERGY      -305.355280898306
Dispersion correction            ...
FINAL SINGLE POINT ENERGY      -305.355942371831
FINAL SINGLE POINT ENERGY      -305.356283840572
FINAL SINGLE POINT ENERGY      -305.356969449847
FINAL SINGLE POINT ENERGY      -305.357328806436
FINAL SINGLE POINT ENERGY      -305.357537505066
FINAL SINGLE POINT ENERGY      -305.357677429302
FINAL SINGLE POINT ENERGY      -305.357916529802
FINAL SINGLE POINT ENERGY      -305.362467294143
FINAL SINGLE POINT ENERGY      -305.362563510648
FINAL SINGLE POINT ENERGY      -305.362671875653
FINAL SINGLE POINT ENERGY      -305.362790500028
FINAL SINGLE POINT ENERGY      -305.362866755029
FINAL SINGLE POINT ENERGY      -305.362928554557
FINAL SINGLE POINT ENERGY      -305.362986038344
Dispersion correction            ...
Dispersion correction           -0.008088634
FINAL SINGLE POINT ENERGY      -305.362989071672
Dispersion correction            ...
Dispersion correction           -0.008084001
FINAL SINGLE POINT ENERGY      -305.362983864107
Dispersion correction            ...
                    ***********************HURRAY********************

CARTESIAN COORDINATES (ANGSTROEM)
---------------------------------
  O      1.741207   -0.503850   -0.362236
  H      2.431746    0.048226   -0.752432
  H      0.981513   -0.443232   -1.002681
  O     -0.466686   -0.301265   -1.847822
  H     -0.791885   -1.200344   -1.996426
  H     -1.040943    0.041954   -1.111371
  O     -1.741779    0.504648    0.362504
  H     -0.981788    0.443904    1.002590
  H     -2.430797   -0.050385    0.751233
  O      0.466165    0.301841    1.847635
  H      1.040212   -0.041580    1.111147
  H      0.793004    1.200076    1.997658

 Multiplicity           Mult            ....    1
 Number of Electrons    NEL             ....   40
 Basis Dimension        Dim             ....   96

ORBITAL ENERGIES
----------------

  NO   OCC          E(Eh)            E(eV)
   0   2.0000     -19.120691      -520.3005
   1   2.0000     -19.120655      -520.2995
   2   2.0000     -19.118350      -520.2368
   3   2.0000     -19.118325      -520.2361
   4   2.0000      -0.995030       -27.0762
   5   2.0000      -0.978660       -26.6307
   6   2.0000      -0.975474       -26.5440
   7   2.0000      -0.959458       -26.1082
   8   2.0000      -0.525615       -14.3027
   9   2.0000      -0.515697       -14.0328
  10   2.0000      -0.509202       -13.8561
  11   2.0000      -0.504663       -13.7326
  12   2.0000      -0.412059       -11.2127
  13   2.0000      -0.381430       -10.3792
  14   2.0000      -0.378046       -10.2872
  15   2.0000      -0.349375        -9.5070
  16   2.0000      -0.302978        -8.2445
  17   2.0000      -0.301905        -8.2152
  18   2.0000      -0.294321        -8.0089
  19   2.0000      -0.290597        -7.9075
  20   0.0000       0.036444         0.9917
  21   0.0000       0.070793         1.9264
  22   0.0000       0.078635         2.1398
  23   0.0000       0.101631         2.7655
  24   0.0000       0.210481         5.7275

MULLIKEN ATOMIC CHARGES
-----------------------
   0 O :   -0.318230
   1 H :    0.161878
   2 H :    0.142888
   3 O :   -0.304905
   4 H :    0.159481
   5 H :    0.158822
   6 O :   -0.318156
   7 H :    0.142980
   8 H :    0.161817
   9 O :   -0.304994
  10 H :    0.158884
  11 H :    0.159534
Sum of atomic charges:   -0.0000000

LOEWDIN ATOMIC CHARGES
----------------------
   0 O :   -0.117930
   1 H :    0.076576
   2 H :    0.034553
   3 O :   -0.109303
   4 H :    0.076094
   5 H :    0.040014
   6 O :   -0.117909
   7 H :    0.034536
   8 H :    0.076534
   9 O :   -0.109293
  10 H :    0.040001
  11 H :    0.076129

  Mayer bond orders larger than 0.1
B(  0-O ,  1-H ) :   0.9924 B(  0-O ,  2-H ) :   0.8761 B(  0-O , 10-H ) :   0.2013
B(  2-H ,  3-O ) :   0.2258 B(  3-O ,  4-H ) :   0.9940 B(  3-O ,  5-H ) :   0.8862
B(  5-H ,  6-O ) :   0.2015 B(  6-O ,  7-H ) :   0.8761 B(  6-O ,  8-H ) :   0.9925
B(  7-H ,  9-O ) :   0.2257 B(  9-O , 10-H ) :   0.8862 B(  9-O , 11-H ) :   0.9940

Dispersion correction           -0.008084593
FINAL SINGLE POINT ENERGY      -305.362983187122

DIPOLE MOMENT
-------------
                                X             Y             Z
Electronic contribution:     -0.00028       0.00103       0.00013
Nuclear contribution   :      0.00271      -0.00344      -0.00037
                        -----------------------------------------
Total Dipole Moment    :      0.00243      -0.00240      -0.00024
                        -----------------------------------------
Magnitude (a.u.)       :      0.00342
Magnitude (Debye)      :      0.00870

                             ****ORCA TERMINATED NORMALLY****
TOTAL RUN TIME: 0 days 0 hours 34 minutes 57 seconds 43 msec
