                         Program Version 4.2.0 -  RELEASE  -
|  1> # 12h2o.su.etal.mol0,1,3,9,11
|  2> ! MP2 def2-TZVP EnGrad TightSCF
|  3>
|  4> %pal
|  5>     nprocs 6
|  6> end
|  7>
|  8> %maxcore 8000
|  9>
| 10> %scf
| 11>     ConvForced true
| 12> end
| 13>
| 14> *xyz 0 1
| 15> O   1.794470000   0.923410000   2.768350000
| 16> H   2.338250000   1.359750000   3.430940000
| 17> H   0.879480000   1.303000000   2.865760000
| 18> O  -1.794470000  -0.923410000   2.768350000
| 19> H  -2.338250000  -1.359750000   3.430940000
| 20> H  -0.879480000  -1.303000000   2.865760000
| 21> O  -1.752130000  -0.741530000  -2.896280000
| 22> H  -2.036450000  -0.920500000  -1.984040000
| 23> H  -0.921210000  -1.242140000  -2.984230000
| 24> O   0.741530000  -1.752130000   2.896280000
| 25> H   0.920500000  -2.036450000   1.984040000
| 26> H   1.242140000  -0.921210000   2.984230000
| 27> O  -0.741530000   1.752130000   2.896280000
| 28> H  -0.920500000   2.036450000   1.984040000
| 29> H  -1.242140000   0.921210000   2.984230000
| 30> *
| 31>
| 32>                          ****END OF INPUT****

CARTESIAN COORDINATES (ANGSTROEM)
---------------------------------
  O      1.794470    0.923410    2.768350
  H      2.338250    1.359750    3.430940
  H      0.879480    1.303000    2.865760
  O     -1.794470   -0.923410    2.768350
  H     -2.338250   -1.359750    3.430940
  H     -0.879480   -1.303000    2.865760
  O     -1.752130   -0.741530   -2.896280
  H     -2.036450   -0.920500   -1.984040
  H     -0.921210   -1.242140   -2.984230
  O      0.741530   -1.752130    2.896280
  H      0.920500   -2.036450    1.984040
  H      1.242140   -0.921210    2.984230
  O     -0.741530    1.752130    2.896280
  H     -0.920500    2.036450    1.984040
  H     -1.242140    0.921210    2.984230

 Total Charge           Charge          ....    0
 Multiplicity           Mult            ....    1
 Number of Electrons    NEL             ....   50
 Basis Dimension        Dim             ....  215

ORBITAL ENERGIES
----------------

  NO   OCC          E(Eh)            E(eV)
   0   2.0000     -20.574604      -559.8634
   1   2.0000     -20.572325      -559.8014
   2   2.0000     -20.563000      -559.5477
   3   2.0000     -20.553453      -559.2879
   4   2.0000     -20.550839      -559.2167
   5   2.0000      -1.368992       -37.2522
   6   2.0000      -1.361520       -37.0488
   7   2.0000      -1.342289       -36.5255
   8   2.0000      -1.336635       -36.3717
   9   2.0000      -1.329406       -36.1750
  10   2.0000      -0.728402       -19.8208
  11   2.0000      -0.725911       -19.7530
  12   2.0000      -0.715906       -19.4808
  13   2.0000      -0.712000       -19.3745
  14   2.0000      -0.705044       -19.1852
  15   2.0000      -0.626051       -17.0357
  16   2.0000      -0.599432       -16.3114
  17   2.0000      -0.585194       -15.9239
  18   2.0000      -0.579704       -15.7746
  19   2.0000      -0.560887       -15.2625
  20   2.0000      -0.514959       -14.0128
  21   2.0000      -0.512680       -13.9507
  22   2.0000      -0.507145       -13.8001
  23   2.0000      -0.503898       -13.7117
  24   2.0000      -0.500969       -13.6321
  25   0.0000       0.109283         2.9737
  26   0.0000       0.130561         3.5527
  27   0.0000       0.153322         4.1721
  28   0.0000       0.156118         4.2482
  29   0.0000       0.173206         4.7132

MULLIKEN ATOMIC CHARGES
-----------------------
   0 O :   -0.744395
   1 H :    0.342478
   2 H :    0.379117
   3 O :   -0.746151
   4 H :    0.343308
   5 H :    0.378463
   6 O :   -0.674652
   7 H :    0.338819
   8 H :    0.335659
   9 O :   -0.706974
  10 H :    0.350902
  11 H :    0.379237
  12 O :   -0.708094
  13 H :    0.354124
  14 H :    0.378161
Sum of atomic charges:    0.0000000

LOEWDIN ATOMIC CHARGES
----------------------
   0 O :   -0.341927
   1 H :    0.156210
   2 H :    0.144921
   3 O :   -0.343019
   4 H :    0.156487
   5 H :    0.144655
   6 O :   -0.332139
   7 H :    0.166031
   8 H :    0.166003
   9 O :   -0.283907
  10 H :    0.170114
  11 H :    0.154745
  12 O :   -0.283963
  13 H :    0.171515
  14 H :    0.154273

  Mayer bond orders larger than 0.100000
B(  0-O ,  1-H ) :   0.8478 B(  0-O ,  2-H ) :   0.7494 B(  2-H , 12-O ) :   0.1091
B(  3-O ,  4-H ) :   0.8473 B(  3-O ,  5-H ) :   0.7494 B(  5-H ,  9-O ) :   0.1099
B(  6-O ,  7-H ) :   0.8522 B(  6-O ,  8-H ) :   0.8539 B(  9-O , 10-H ) :   0.8419
B(  9-O , 11-H ) :   0.7800 B( 12-O , 13-H ) :   0.8400 B( 12-O , 14-H ) :   0.7824

MP2 TOTAL ENERGY:     -381.610816811 Eh
FINAL SINGLE POINT ENERGY      -381.610816811014

DIPOLE MOMENT
-------------
                                X             Y             Z
Electronic contribution:     -0.07324       0.10295      -0.06774
Nuclear contribution   :      0.45497      -0.56566       0.57908
                        -----------------------------------------
Total Dipole Moment    :      0.38173      -0.46271       0.51134
                        -----------------------------------------
Magnitude (a.u.)       :      0.78822
Magnitude (Debye)      :      2.00349

Rotational constants in cm-1:     0.064184     0.025517     0.024792
Rotational constants in MHz :  1924.182806   764.984336   743.234790

                             ****ORCA TERMINATED NORMALLY****
TOTAL RUN TIME: 0 days 0 hours 0 minutes 28 seconds 879 msec
