                         Program Version 4.2.0 -  RELEASE  -
|  1> # 12h2o.su.etal.mol0,1,2,3,6,8,9,11
|  2> ! MP2 def2-TZVP EnGrad TightSCF
|  3>
|  4> %pal
|  5>     nprocs 6
|  6> end
|  7>
|  8> %maxcore 8000
|  9>
| 10> %scf
| 11>     ConvForced true
| 12> end
| 13>
| 14> *xyz 0 1
| 15> O   1.794470000   0.923410000   2.768350000
| 16> H   2.338250000   1.359750000   3.430940000
| 17> H   0.879480000   1.303000000   2.865760000
| 18> O  -1.794470000  -0.923410000   2.768350000
| 19> H  -2.338250000  -1.359750000   3.430940000
| 20> H  -0.879480000  -1.303000000   2.865760000
| 21> O   0.923410000  -1.794470000  -2.768350000
| 22> H   1.359750000  -2.338250000  -3.430940000
| 23> H   1.303000000  -0.879480000  -2.865760000
| 24> O  -1.752130000  -0.741530000  -2.896280000
| 25> H  -2.036450000  -0.920500000  -1.984040000
| 26> H  -0.921210000  -1.242140000  -2.984230000
| 27> O   1.737840000   0.885520000  -0.052730000
| 28> H   2.090180000   1.032320000   0.841890000
| 29> H   0.839590000   1.284090000  -0.017130000
| 30> O   1.752130000   0.741530000  -2.896280000
| 31> H   2.036450000   0.920500000  -1.984040000
| 32> H   0.921210000   1.242140000  -2.984230000
| 33> O   0.741530000  -1.752130000   2.896280000
| 34> H   0.920500000  -2.036450000   1.984040000
| 35> H   1.242140000  -0.921210000   2.984230000
| 36> O  -0.741530000   1.752130000   2.896280000
| 37> H  -0.920500000   2.036450000   1.984040000
| 38> H  -1.242140000   0.921210000   2.984230000
| 39> *
| 40>
| 41>                          ****END OF INPUT****

CARTESIAN COORDINATES (ANGSTROEM)
---------------------------------
  O      1.794470    0.923410    2.768350
  H      2.338250    1.359750    3.430940
  H      0.879480    1.303000    2.865760
  O     -1.794470   -0.923410    2.768350
  H     -2.338250   -1.359750    3.430940
  H     -0.879480   -1.303000    2.865760
  O      0.923410   -1.794470   -2.768350
  H      1.359750   -2.338250   -3.430940
  H      1.303000   -0.879480   -2.865760
  O     -1.752130   -0.741530   -2.896280
  H     -2.036450   -0.920500   -1.984040
  H     -0.921210   -1.242140   -2.984230
  O      1.737840    0.885520   -0.052730
  H      2.090180    1.032320    0.841890
  H      0.839590    1.284090   -0.017130
  O      1.752130    0.741530   -2.896280
  H      2.036450    0.920500   -1.984040
  H      0.921210    1.242140   -2.984230
  O      0.741530   -1.752130    2.896280
  H      0.920500   -2.036450    1.984040
  H      1.242140   -0.921210    2.984230
  O     -0.741530    1.752130    2.896280
  H     -0.920500    2.036450    1.984040
  H     -1.242140    0.921210    2.984230

 Total Charge           Charge          ....    0
 Multiplicity           Mult            ....    1
 Number of Electrons    NEL             ....   80
 Basis Dimension        Dim             ....  344

ORBITAL ENERGIES
----------------

  NO   OCC          E(Eh)            E(eV)
   0   2.0000     -20.592888      -560.3610
   1   2.0000     -20.586471      -560.1864
   2   2.0000     -20.578693      -559.9747
   3   2.0000     -20.577280      -559.9363
   4   2.0000     -20.568314      -559.6923
   5   2.0000     -20.558062      -559.4133
   6   2.0000     -20.533322      -558.7401
   7   2.0000     -20.524380      -558.4968
   8   2.0000      -1.389222       -37.8026
   9   2.0000      -1.371482       -37.3199
  10   2.0000      -1.367096       -37.2006
  11   2.0000      -1.361383       -37.0451
  12   2.0000      -1.352001       -36.7898
  13   2.0000      -1.338379       -36.4191
  14   2.0000      -1.318448       -35.8768
  15   2.0000      -1.304769       -35.5046
  16   2.0000      -0.752972       -20.4894
  17   2.0000      -0.744177       -20.2501
  18   2.0000      -0.730648       -19.8819
  19   2.0000      -0.728407       -19.8210
  20   2.0000      -0.721251       -19.6262
  21   2.0000      -0.713278       -19.4093
  22   2.0000      -0.701072       -19.0771
  23   2.0000      -0.674137       -18.3442
  24   2.0000      -0.646819       -17.6008
  25   2.0000      -0.619199       -16.8493
  26   2.0000      -0.610598       -16.6152
  27   2.0000      -0.606527       -16.5044
  28   2.0000      -0.589729       -16.0473
  29   2.0000      -0.573114       -15.5952
  30   2.0000      -0.564235       -15.3536
  31   2.0000      -0.541633       -14.7386
  32   2.0000      -0.535733       -14.5780
  33   2.0000      -0.533237       -14.5101
  34   2.0000      -0.523503       -14.2452
  35   2.0000      -0.518830       -14.1181
  36   2.0000      -0.508740       -13.8435
  37   2.0000      -0.504190       -13.7197
  38   2.0000      -0.482723       -13.1356
  39   2.0000      -0.471919       -12.8416
  40   0.0000       0.081116         2.2073
  41   0.0000       0.128219         3.4890
  42   0.0000       0.139985         3.8092
  43   0.0000       0.140942         3.8352
  44   0.0000       0.167074         4.5463

MULLIKEN ATOMIC CHARGES
-----------------------
   0 O :   -0.759310
   1 H :    0.356846
   2 H :    0.382250
   3 O :   -0.746225
   4 H :    0.345631
   5 H :    0.380391
   6 O :   -0.740831
   7 H :    0.335234
   8 H :    0.384002
   9 O :   -0.717679
  10 H :    0.326925
  11 H :    0.362522
  12 O :   -0.708703
  13 H :    0.381087
  14 H :    0.321791
  15 O :   -0.701883
  16 H :    0.388555
  17 H :    0.349086
  18 O :   -0.709663
  19 H :    0.364263
  20 H :    0.377277
  21 O :   -0.703059
  22 H :    0.346492
  23 H :    0.385001
Sum of atomic charges:   -0.0000000

LOEWDIN ATOMIC CHARGES
----------------------
   0 O :   -0.315126
   1 H :    0.162194
   2 H :    0.145480
   3 O :   -0.341760
   4 H :    0.157842
   5 H :    0.145104
   6 O :   -0.341284
   7 H :    0.152807
   8 H :    0.146091
   9 O :   -0.354202
  10 H :    0.158447
  11 H :    0.147323
  12 O :   -0.324011
  13 H :    0.154479
  14 H :    0.163043
  15 O :   -0.277220
  16 H :    0.159327
  17 H :    0.169869
  18 O :   -0.281897
  19 H :    0.175616
  20 H :    0.153120
  21 O :   -0.278876
  22 H :    0.166513
  23 H :    0.157118

  Mayer bond orders larger than 0.100000
B(  0-O ,  1-H ) :   0.8371 B(  0-O ,  2-H ) :   0.7330 B(  2-H , 21-O ) :   0.1146
B(  3-O ,  4-H ) :   0.8459 B(  3-O ,  5-H ) :   0.7484 B(  5-H , 18-O ) :   0.1087
B(  6-O ,  7-H ) :   0.8516 B(  6-O ,  8-H ) :   0.7564 B(  9-O , 10-H ) :   0.8591
B(  9-O , 11-H ) :   0.8025 B( 12-O , 13-H ) :   0.7989 B( 12-O , 14-H ) :   0.8523
B( 15-O , 16-H ) :   0.7971 B( 15-O , 17-H ) :   0.8393 B( 18-O , 19-H ) :   0.8325
B( 18-O , 20-H ) :   0.7936 B( 21-O , 22-H ) :   0.8441 B( 21-O , 23-H ) :   0.7726

MP2 TOTAL ENERGY:     -610.588122892 Eh
FINAL SINGLE POINT ENERGY      -610.588122891987

DIPOLE MOMENT
-------------
                                X             Y             Z
Electronic contribution:      0.29845       0.04427       0.22961
Nuclear contribution   :      0.22475       0.76293       1.40687
                        -----------------------------------------
Total Dipole Moment    :      0.52321       0.80719       1.63648
                        -----------------------------------------
Magnitude (a.u.)       :      1.89826
Magnitude (Debye)      :      4.82499

Rotational constants in cm-1:     0.032360     0.014082     0.012427
Rotational constants in MHz :   970.113501   422.178818   372.543812

                             ****ORCA TERMINATED NORMALLY****
TOTAL RUN TIME: 0 days 0 hours 2 minutes 40 seconds 802 msec
