                         Program Version 4.2.0 -  RELEASE  -
|  1> # 12h2o.su.etal.mol5,6,8,9
|  2> ! MP2 def2-TZVP EnGrad TightSCF
|  3>
|  4> %pal
|  5>     nprocs 6
|  6> end
|  7>
|  8> %maxcore 8000
|  9>
| 10> %scf
| 11>     ConvForced true
| 12> end
| 13>
| 14> *xyz 0 1
| 15> O   0.885520000  -1.737840000   0.052730000
| 16> H   1.284090000  -0.839590000   0.017130000
| 17> H   1.032320000  -2.090180000  -0.841890000
| 18> O   1.737840000   0.885520000  -0.052730000
| 19> H   2.090180000   1.032320000   0.841890000
| 20> H   0.839590000   1.284090000  -0.017130000
| 21> O   1.752130000   0.741530000  -2.896280000
| 22> H   2.036450000   0.920500000  -1.984040000
| 23> H   0.921210000   1.242140000  -2.984230000
| 24> O   0.741530000  -1.752130000   2.896280000
| 25> H   0.920500000  -2.036450000   1.984040000
| 26> H   1.242140000  -0.921210000   2.984230000
| 27> *
| 28>
| 29>                          ****END OF INPUT****

CARTESIAN COORDINATES (ANGSTROEM)
---------------------------------
  O      0.885520   -1.737840    0.052730
  H      1.284090   -0.839590    0.017130
  H      1.032320   -2.090180   -0.841890
  O      1.737840    0.885520   -0.052730
  H      2.090180    1.032320    0.841890
  H      0.839590    1.284090   -0.017130
  O      1.752130    0.741530   -2.896280
  H      2.036450    0.920500   -1.984040
  H      0.921210    1.242140   -2.984230
  O      0.741530   -1.752130    2.896280
  H      0.920500   -2.036450    1.984040
  H      1.242140   -0.921210    2.984230

 Total Charge           Charge          ....    0
 Multiplicity           Mult            ....    1
 Number of Electrons    NEL             ....   40
 Basis Dimension        Dim             ....  172

ORBITAL ENERGIES
----------------

  NO   OCC          E(Eh)            E(eV)
   0   2.0000     -20.635905      -561.5315
   1   2.0000     -20.557483      -559.3975
   2   2.0000     -20.555879      -559.3539
   3   2.0000     -20.535633      -558.8030
   4   2.0000      -1.418729       -38.6056
   5   2.0000      -1.341795       -36.5121
   6   2.0000      -1.337727       -36.4014
   7   2.0000      -1.316696       -35.8291
   8   2.0000      -0.777000       -21.1432
   9   2.0000      -0.719573       -19.5806
  10   2.0000      -0.709805       -19.3148
  11   2.0000      -0.686145       -18.6710
  12   2.0000      -0.653184       -17.7740
  13   2.0000      -0.604630       -16.4528
  14   2.0000      -0.573224       -15.5982
  15   2.0000      -0.563277       -15.3276
  16   2.0000      -0.545458       -14.8427
  17   2.0000      -0.506305       -13.7773
  18   2.0000      -0.501618       -13.6497
  19   2.0000      -0.481608       -13.1052
  20   0.0000       0.072596         1.9754
  21   0.0000       0.126629         3.4457
  22   0.0000       0.158007         4.2996
  23   0.0000       0.175991         4.7890
  24   0.0000       0.194212         5.2848

MULLIKEN ATOMIC CHARGES
-----------------------
   0 O :   -0.723300
   1 H :    0.348358
   2 H :    0.349498
   3 O :   -0.704935
   4 H :    0.367591
   5 H :    0.369078
   6 O :   -0.688103
   7 H :    0.366657
   8 H :    0.324247
   9 O :   -0.686006
  10 H :    0.376390
  11 H :    0.300524
Sum of atomic charges:    0.0000000

LOEWDIN ATOMIC CHARGES
----------------------
   0 O :   -0.338352
   1 H :    0.140175
   2 H :    0.168196
   3 O :   -0.274270
   4 H :    0.176296
   5 H :    0.184922
   6 O :   -0.334015
   7 H :    0.150034
   8 H :    0.160655
   9 O :   -0.337523
  10 H :    0.154828
  11 H :    0.149053

  Mayer bond orders larger than 0.100000
B(  0-O ,  1-H ) :   0.7986 B(  0-O ,  2-H ) :   0.8424 B(  3-O ,  4-H ) :   0.8284
B(  3-O ,  5-H ) :   0.8243 B(  6-O ,  7-H ) :   0.8277 B(  6-O ,  8-H ) :   0.8599
B(  9-O , 10-H ) :   0.8128 B(  9-O , 11-H ) :   0.8728

MP2 TOTAL ENERGY:     -305.269477774 Eh
FINAL SINGLE POINT ENERGY      -305.269477774210

DIPOLE MOMENT
-------------
                                X             Y             Z
Electronic contribution:      0.04259      -0.13235      -0.09281
Nuclear contribution   :      0.11024       1.92896       0.00000
                        -----------------------------------------
Total Dipole Moment    :      0.15283       1.79661      -0.09281
                        -----------------------------------------
Magnitude (a.u.)       :      1.80548
Magnitude (Debye)      :      4.58917

Rotational constants in cm-1:     0.286775     0.044890     0.039201
Rotational constants in MHz :  8597.308067  1345.777457  1175.226444

                             ****ORCA TERMINATED NORMALLY****
TOTAL RUN TIME: 0 days 0 hours 0 minutes 21 seconds 321 msec
