                         Program Version 3.0.3 - RELEASE   -
|  1> ! wB97X-D3 Def2-TZVP def2-TZVP/J RIJCOSX TightSCF Grid4
|  2>
|  3> %pal nprocs 12 end
|  4>
|  5> %scf
|  6>         maxiter 400
|  7> end
|  8>
|  9> * xyz  0  1
| 10> O  1.741207	-0.503850	-0.362236
| 11> H  2.431746	0.048226	-0.752432
| 12> H  0.981513	-0.443232	-1.002681
| 13> O  -0.466686	-0.301265	-1.847822
| 14> H  -0.791885	-1.200344	-1.996426
| 15> H  -1.040943	0.041954	-1.111371
| 16> O  -1.741779	0.504648	0.362504
| 17> H  -0.981788	0.443904	1.002590
| 18> H  -2.430797	-0.050385	0.751233
| 19> O  0.466165	0.301841	1.847635
| 20> H  1.040212	-0.041580	1.111147
| 21> H  0.793004	1.200076	1.997658
| 22> **                         ****END OF INPUT****

CARTESIAN COORDINATES (ANGSTROEM)
---------------------------------
  O      1.741207   -0.503850   -0.362236
  H      2.431746    0.048226   -0.752432
  H      0.981513   -0.443232   -1.002681
  O     -0.466686   -0.301265   -1.847822
  H     -0.791885   -1.200344   -1.996426
  H     -1.040943    0.041954   -1.111371
  O     -1.741779    0.504648    0.362504
  H     -0.981788    0.443904    1.002590
  H     -2.430797   -0.050385    0.751233
  O      0.466165    0.301841    1.847635
  H      1.040212   -0.041580    1.111147
  H      0.793004    1.200076    1.997658

 Total Charge           Charge          ....    0
 Multiplicity           Mult            ....    1
 Number of Electrons    NEL             ....   40
 Basis Dimension        Dim             ....  172

ORBITAL ENERGIES
----------------

  NO   OCC          E(Eh)            E(eV)
   0   2.0000     -19.231968      -523.3285
   1   2.0000     -19.231931      -523.3274
   2   2.0000     -19.230604      -523.2913
   3   2.0000     -19.230565      -523.2903
   4   2.0000      -1.140347       -31.0304
   5   2.0000      -1.123641       -30.5758
   6   2.0000      -1.121615       -30.5207
   7   2.0000      -1.105369       -30.0786
   8   2.0000      -0.644257       -17.5311
   9   2.0000      -0.633526       -17.2391
  10   2.0000      -0.626680       -17.0528
  11   2.0000      -0.622927       -16.9507
  12   2.0000      -0.534122       -14.5342
  13   2.0000      -0.503603       -13.7037
  14   2.0000      -0.499263       -13.5856
  15   2.0000      -0.471933       -12.8419
  16   2.0000      -0.420879       -11.4527
  17   2.0000      -0.419901       -11.4261
  18   2.0000      -0.412057       -11.2126
  19   2.0000      -0.408649       -11.1199
  20   0.0000       0.093278         2.5382
  21   0.0000       0.129456         3.5227
  22   0.0000       0.138918         3.7801
  23   0.0000       0.162547         4.4231
  24   0.0000       0.255331         6.9479

MULLIKEN ATOMIC CHARGES
-----------------------
   0 O :   -0.710253
   1 H :    0.336876
   2 H :    0.358698
   3 O :   -0.698946
   4 H :    0.335704
   5 H :    0.377873
   6 O :   -0.710203
   7 H :    0.358791
   8 H :    0.336821
   9 O :   -0.699043
  10 H :    0.377930
  11 H :    0.335751
Sum of atomic charges:   -0.0000000

LOEWDIN ATOMIC CHARGES
----------------------
   0 O :   -0.302591
   1 H :    0.156667
   2 H :    0.138718
   3 O :   -0.293200
   4 H :    0.156753
   5 H :    0.143657
   6 O :   -0.302569
   7 H :    0.138701
   8 H :    0.156635
   9 O :   -0.293186
  10 H :    0.143633
  11 H :    0.156783

  Mayer bond orders larger than 0.1
B(  0-O ,  1-H ) :   0.8943 B(  0-O ,  2-H ) :   0.7852 B(  0-O , 10-H ) :   0.1100
B(  2-H ,  3-O ) :   0.1413 B(  3-O ,  4-H ) :   0.8947 B(  3-O ,  5-H ) :   0.7941
B(  5-H ,  6-O ) :   0.1102 B(  6-O ,  7-H ) :   0.7853 B(  6-O ,  8-H ) :   0.8943
B(  7-H ,  9-O ) :   0.1412 B(  9-O , 10-H ) :   0.7941 B(  9-O , 11-H ) :   0.8946

Dispersion correction           -0.003027293
FINAL SINGLE POINT ENERGY      -305.803478221890

DIPOLE MOMENT
-------------
                                X             Y             Z
Electronic contribution:     -0.00017       0.00092       0.00006
Nuclear contribution   :      0.00270      -0.00344      -0.00037
                        -----------------------------------------
Total Dipole Moment    :      0.00254      -0.00251      -0.00031
                        -----------------------------------------
Magnitude (a.u.)       :      0.00358
Magnitude (Debye)      :      0.00911

                             ****ORCA TERMINATED NORMALLY****
TOTAL RUN TIME: 0 days 0 hours 0 minutes 51 seconds 322 msec
