                         Program Version 3.0.3 - RELEASE   -
|  1> ! wB97X-D3 MA-Def2-TZVP def2-TZVP/J RIJCOSX TightSCF Grid4
|  2>
|  3> %pal nprocs 1 end
|  4>
|  5> %scf
|  6>         maxiter 400
|  7> end
|  8>
|  9> * xyz  0  1
| 10> O  1.741207	-0.503850	-0.362236
| 11> H  2.431746	0.048226	-0.752432
| 12> H  0.981513	-0.443232	-1.002681
| 13> O  -0.466686	-0.301265	-1.847822
| 14> H  -0.791885	-1.200344	-1.996426
| 15> H  -1.040943	0.041954	-1.111371
| 16> O  -1.741779	0.504648	0.362504
| 17> H  -0.981788	0.443904	1.002590
| 18> H  -2.430797	-0.050385	0.751233
| 19> O  0.466165	0.301841	1.847635
| 20> H  1.040212	-0.041580	1.111147
| 21> H  0.793004	1.200076	1.997658
| 22> **                         ****END OF INPUT****

CARTESIAN COORDINATES (ANGSTROEM)
---------------------------------
  O      1.741207   -0.503850   -0.362236
  H      2.431746    0.048226   -0.752432
  H      0.981513   -0.443232   -1.002681
  O     -0.466686   -0.301265   -1.847822
  H     -0.791885   -1.200344   -1.996426
  H     -1.040943    0.041954   -1.111371
  O     -1.741779    0.504648    0.362504
  H     -0.981788    0.443904    1.002590
  H     -2.430797   -0.050385    0.751233
  O      0.466165    0.301841    1.847635
  H      1.040212   -0.041580    1.111147
  H      0.793004    1.200076    1.997658

 Total Charge           Charge          ....    0
 Multiplicity           Mult            ....    1
 Number of Electrons    NEL             ....   40
 Basis Dimension        Dim             ....  188

ORBITAL ENERGIES
----------------

  NO   OCC          E(Eh)            E(eV)
   0   2.0000     -19.236345      -523.4475
   1   2.0000     -19.236311      -523.4466
   2   2.0000     -19.235696      -523.4299
   3   2.0000     -19.235651      -523.4287
   4   2.0000      -1.143795       -31.1242
   5   2.0000      -1.126928       -30.6653
   6   2.0000      -1.125213       -30.6186
   7   2.0000      -1.108807       -30.1722
   8   2.0000      -0.647513       -17.6197
   9   2.0000      -0.636806       -17.3284
  10   2.0000      -0.629953       -17.1419
  11   2.0000      -0.626218       -17.0403
  12   2.0000      -0.537517       -14.6266
  13   2.0000      -0.506970       -13.7954
  14   2.0000      -0.502866       -13.6837
  15   2.0000      -0.475370       -12.9355
  16   2.0000      -0.424460       -11.5502
  17   2.0000      -0.423442       -11.5225
  18   2.0000      -0.415470       -11.3055
  19   2.0000      -0.412117       -11.2143
  20   0.0000       0.063799         1.7361
  21   0.0000       0.096430         2.6240
  22   0.0000       0.100178         2.7260
  23   0.0000       0.127903         3.4804
  24   0.0000       0.134735         3.6663

MULLIKEN ATOMIC CHARGES
-----------------------
   0 O :   -0.750478
   1 H :    0.346641
   2 H :    0.385965
   3 O :   -0.740091
   4 H :    0.347433
   5 H :    0.410453
   6 O :   -0.750486
   7 H :    0.386094
   8 H :    0.346634
   9 O :   -0.740022
  10 H :    0.410450
  11 H :    0.347406
Sum of atomic charges:   -0.0000000

LOEWDIN ATOMIC CHARGES
----------------------
   0 O :   -0.379025
   1 H :    0.187362
   2 H :    0.183858
   3 O :   -0.370164
   4 H :    0.188440
   5 H :    0.189521
   6 O :   -0.378993
   7 H :    0.183846
   8 H :    0.187342
   9 O :   -0.370145
  10 H :    0.189499
  11 H :    0.188458

  Mayer bond orders larger than 0.1
B(  0-O ,  1-H ) :   0.8935 B(  0-O ,  2-H ) :   0.7991 B(  3-O ,  4-H ) :   0.8983
B(  3-O ,  5-H ) :   0.8072 B(  6-O ,  7-H ) :   0.7991 B(  6-O ,  8-H ) :   0.8936
B(  9-O , 10-H ) :   0.8072 B(  9-O , 11-H ) :   0.8982

Dispersion correction           -0.003027293
FINAL SINGLE POINT ENERGY      -305.806833341941

DIPOLE MOMENT
-------------
                                X             Y             Z
Electronic contribution:     -0.00021       0.00092       0.00003
Nuclear contribution   :      0.00270      -0.00344      -0.00037
                        -----------------------------------------
Total Dipole Moment    :      0.00249      -0.00251      -0.00034
                        -----------------------------------------
Magnitude (a.u.)       :      0.00355
Magnitude (Debye)      :      0.00903

                             ****ORCA TERMINATED NORMALLY****
TOTAL RUN TIME: 0 days 0 hours 1 minutes 14 seconds 466 msec
