                         Program Version 3.0.3 - RELEASE   -
|  1> ! wB97X-D3 MA-Def2-TZVP def2-TZVP/J RIJCOSX TightSCF Grid4
|  2>
|  3> %pal nprocs 1 end
|  4>
|  5> %scf
|  6>         maxiter 400
|  7> end
|  8>
|  9> * xyz  0  1
| 10> O  1.742989	-0.547808	-0.356012
| 11> H  2.381645	0.102124	-0.703683
| 12> H  0.949081	-0.458314	-0.986364
| 13> O  -0.454856	-0.283420	-1.800847
| 14> H  -0.788266	-1.184648	-1.966945
| 15> H  -1.047046	0.057965	-1.048242
| 16> O  -1.743420	0.547024	0.356353
| 17> H  -0.949224	0.458284	0.986451
| 18> H  -2.381244	-0.103691	0.704094
| 19> O  0.454921	0.284485	1.800779
| 20> H  1.046780	-0.057795	1.048325
| 21> H  0.788610	1.185788	1.965889
| 22> **                         ****END OF INPUT****

CARTESIAN COORDINATES (ANGSTROEM)
---------------------------------
  O      1.742989   -0.547808   -0.356012
  H      2.381645    0.102124   -0.703683
  H      0.949081   -0.458314   -0.986364
  O     -0.454856   -0.283420   -1.800847
  H     -0.788266   -1.184648   -1.966945
  H     -1.047046    0.057965   -1.048242
  O     -1.743420    0.547024    0.356353
  H     -0.949224    0.458284    0.986451
  H     -2.381244   -0.103691    0.704094
  O      0.454921    0.284485    1.800779
  H      1.046780   -0.057795    1.048325
  H      0.788610    1.185788    1.965889

 Total Charge           Charge          ....    0
 Multiplicity           Mult            ....    1
 Number of Electrons    NEL             ....   40
 Basis Dimension        Dim             ....  188

ORBITAL ENERGIES
----------------

  NO   OCC          E(Eh)            E(eV)
   0   2.0000     -19.238917      -523.5176
   1   2.0000     -19.238913      -523.5174
   2   2.0000     -19.238336      -523.5017
   3   2.0000     -19.238325      -523.5014
   4   2.0000      -1.142965       -31.1017
   5   2.0000      -1.123626       -30.5754
   6   2.0000      -1.122425       -30.5427
   7   2.0000      -1.103504       -30.0279
   8   2.0000      -0.643866       -17.5205
   9   2.0000      -0.633346       -17.2342
  10   2.0000      -0.625274       -17.0146
  11   2.0000      -0.623076       -16.9548
  12   2.0000      -0.539712       -14.6863
  13   2.0000      -0.511082       -13.9072
  14   2.0000      -0.502324       -13.6689
  15   2.0000      -0.479955       -13.0602
  16   2.0000      -0.423792       -11.5320
  17   2.0000      -0.420541       -11.4435
  18   2.0000      -0.416168       -11.3245
  19   2.0000      -0.411042       -11.1850
  20   0.0000       0.061461         1.6724
  21   0.0000       0.095018         2.5856
  22   0.0000       0.100999         2.7483
  23   0.0000       0.128526         3.4974
  24   0.0000       0.133502         3.6328

MULLIKEN ATOMIC CHARGES
-----------------------
   0 O :   -0.750557
   1 H :    0.350117
   2 H :    0.388144
   3 O :   -0.749182
   4 H :    0.350029
   5 H :    0.411430
   6 O :   -0.750566
   7 H :    0.388201
   8 H :    0.350120
   9 O :   -0.749206
  10 H :    0.411436
  11 H :    0.350035
Sum of atomic charges:   -0.0000000

LOEWDIN ATOMIC CHARGES
----------------------
   0 O :   -0.388347
   1 H :    0.192180
   2 H :    0.191259
   3 O :   -0.382560
   4 H :    0.192416
   5 H :    0.195045
   6 O :   -0.388342
   7 H :    0.191265
   8 H :    0.192182
   9 O :   -0.382556
  10 H :    0.195041
  11 H :    0.192419

  Mayer bond orders larger than 0.1
B(  0-O ,  1-H ) :   0.8949 B(  0-O ,  2-H ) :   0.7817 B(  2-H ,  3-O ) :   0.1068
B(  3-O ,  4-H ) :   0.8968 B(  3-O ,  5-H ) :   0.7813 B(  6-O ,  7-H ) :   0.7817
B(  6-O ,  8-H ) :   0.8949 B(  7-H ,  9-O ) :   0.1067 B(  9-O , 10-H ) :   0.7813
B(  9-O , 11-H ) :   0.8968

Dispersion correction           -0.003089934
FINAL SINGLE POINT ENERGY      -305.802336957924

DIPOLE MOMENT
-------------
                                X             Y             Z
Electronic contribution:     -0.00017       0.00018       0.00018
Nuclear contribution   :      0.00089      -0.00071      -0.00085
                        -----------------------------------------
Total Dipole Moment    :      0.00072      -0.00053      -0.00067
                        -----------------------------------------
Magnitude (a.u.)       :      0.00111
Magnitude (Debye)      :      0.00283

                             ****ORCA TERMINATED NORMALLY****
TOTAL RUN TIME: 0 days 0 hours 1 minutes 6 seconds 803 msec
