                         Program Version 3.0.3 - RELEASE   -
|  1> ! B3LYP Def2-TZVP def2-TZVP/J RIJCOSX TightSCF Grid4 D3BJ COSMO
|  2>
|  3> %pal nprocs 12 end
|  4>
|  5> %scf
|  6>         maxiter 400
|  7> end
|  8>
|  9> %cosmo
| 10>         SMD true
| 11>         solvent "WATER"
| 12> end
| 13>
| 14> * xyz  0  1
| 15> O  1.792488	-0.596432	-0.398032
| 16> H  2.389463	0.119658	-0.664998
| 17> H  1.002959	-0.482795	-0.992114
| 18> O  -0.485978	-0.269787	-1.800694
| 19> H  -0.787003	-1.184950	-1.917909
| 20> H  -1.036017	0.058708	-1.039704
| 21> O  -1.793210	0.593528	0.398943
| 22> H  -1.002725	0.481762	0.991918
| 23> H  -2.389668	-0.121336	0.670223
| 24> O  0.487172	0.271899	1.799331
| 25> H  1.037079	-0.058558	1.038892
| 26> H  0.785410	1.188297	1.913943
| 27> **                         ****END OF INPUT****

CARTESIAN COORDINATES (ANGSTROEM)
---------------------------------
  O      1.792488   -0.596432   -0.398032
  H      2.389463    0.119658   -0.664998
  H      1.002959   -0.482795   -0.992114
  O     -0.485978   -0.269787   -1.800694
  H     -0.787003   -1.184950   -1.917909
  H     -1.036017    0.058708   -1.039704
  O     -1.793210    0.593528    0.398943
  H     -1.002725    0.481762    0.991918
  H     -2.389668   -0.121336    0.670223
  O      0.487172    0.271899    1.799331
  H      1.037079   -0.058558    1.038892
  H      0.785410    1.188297    1.913943

 Total Charge           Charge          ....    0
 Multiplicity           Mult            ....    1
 Number of Electrons    NEL             ....   40
 Basis Dimension        Dim             ....  172

ORBITAL ENERGIES
----------------

  NO   OCC          E(Eh)            E(eV)
   0   2.0000     -19.124009      -520.3907
   1   2.0000     -19.123910      -520.3880
   2   2.0000     -19.123469      -520.3760
   3   2.0000     -19.123395      -520.3740
   4   2.0000      -1.022496       -27.8235
   5   2.0000      -1.005579       -27.3632
   6   2.0000      -1.005177       -27.3523
   7   2.0000      -0.988608       -26.9014
   8   2.0000      -0.530641       -14.4395
   9   2.0000      -0.525450       -14.2982
  10   2.0000      -0.519338       -14.1319
  11   2.0000      -0.517311       -14.0768
  12   2.0000      -0.426009       -11.5923
  13   2.0000      -0.408540       -11.1169
  14   2.0000      -0.397762       -10.8237
  15   2.0000      -0.385159       -10.4807
  16   2.0000      -0.322082        -8.7643
  17   2.0000      -0.320759        -8.7283
  18   2.0000      -0.319380        -8.6908
  19   2.0000      -0.313817        -8.5394
  20   0.0000       0.022303         0.6069
  21   0.0000       0.063957         1.7404
  22   0.0000       0.072964         1.9855
  23   0.0000       0.102889         2.7997
  24   0.0000       0.177659         4.8344

MULLIKEN ATOMIC CHARGES
-----------------------
   0 O :   -0.748847
   1 H :    0.379269
   2 H :    0.367546
   3 O :   -0.746781
   4 H :    0.378029
   5 H :    0.371110
   6 O :   -0.748868
   7 H :    0.367025
   8 H :    0.379423
   9 O :   -0.747753
  10 H :    0.371632
  11 H :    0.378215
Sum of atomic charges:   -0.0000000

LOEWDIN ATOMIC CHARGES
----------------------
   0 O :   -0.322033
   1 H :    0.179634
   2 H :    0.141640
   3 O :   -0.320660
   4 H :    0.179888
   5 H :    0.141889
   6 O :   -0.322237
   7 H :    0.141260
   8 H :    0.179760
   9 O :   -0.320880
  10 H :    0.141946
  11 H :    0.179793

  Mayer bond orders larger than 0.1
B(  0-O ,  1-H ) :   0.8614 B(  0-O ,  2-H ) :   0.7808 B(  0-O , 10-H ) :   0.1372
B(  2-H ,  3-O ) :   0.1417 B(  3-O ,  4-H ) :   0.8629 B(  3-O ,  5-H ) :   0.7819
B(  5-H ,  6-O ) :   0.1365 B(  6-O ,  7-H ) :   0.7811 B(  6-O ,  8-H ) :   0.8613
B(  7-H ,  9-O ) :   0.1418 B(  9-O , 10-H ) :   0.7809 B(  9-O , 11-H ) :   0.8627

Dispersion correction           -0.008187271
FINAL SINGLE POINT ENERGY      -305.782497154620

DIPOLE MOMENT
-------------
                                X             Y             Z
Electronic contribution:     -0.00025      -0.00165      -0.00112
Nuclear contribution   :     -0.00120       0.00197       0.00096
                        -----------------------------------------
Total Dipole Moment    :     -0.00145       0.00033      -0.00015
                        -----------------------------------------
Magnitude (a.u.)       :      0.00150
Magnitude (Debye)      :      0.00380

                             ****ORCA TERMINATED NORMALLY****
TOTAL RUN TIME: 0 days 0 hours 0 minutes 52 seconds 532 msec
