                         Program Version 4.2.0 -  RELEASE  -
|  1> # 12h2o.su.etal.mol0,2,5,7,8,9
|  2> ! MP2 def2-TZVP EnGrad TightSCF
|  3>
|  4> %pal
|  5>     nprocs 6
|  6> end
|  7>
|  8> %maxcore 8000
|  9>
| 10> %scf
| 11>     ConvForced true
| 12> end
| 13>
| 14> *xyz 0 1
| 15> O   1.794470000   0.923410000   2.768350000
| 16> H   2.338250000   1.359750000   3.430940000
| 17> H   0.879480000   1.303000000   2.865760000
| 18> O   0.923410000  -1.794470000  -2.768350000
| 19> H   1.359750000  -2.338250000  -3.430940000
| 20> H   1.303000000  -0.879480000  -2.865760000
| 21> O   0.885520000  -1.737840000   0.052730000
| 22> H   1.284090000  -0.839590000   0.017130000
| 23> H   1.032320000  -2.090180000  -0.841890000
| 24> O  -1.737840000  -0.885520000  -0.052730000
| 25> H  -2.090180000  -1.032320000   0.841890000
| 26> H  -0.839590000  -1.284090000  -0.017130000
| 27> O   1.752130000   0.741530000  -2.896280000
| 28> H   2.036450000   0.920500000  -1.984040000
| 29> H   0.921210000   1.242140000  -2.984230000
| 30> O   0.741530000  -1.752130000   2.896280000
| 31> H   0.920500000  -2.036450000   1.984040000
| 32> H   1.242140000  -0.921210000   2.984230000
| 33> *
| 34>
| 35>                          ****END OF INPUT****

CARTESIAN COORDINATES (ANGSTROEM)
---------------------------------
  O      1.794470    0.923410    2.768350
  H      2.338250    1.359750    3.430940
  H      0.879480    1.303000    2.865760
  O      0.923410   -1.794470   -2.768350
  H      1.359750   -2.338250   -3.430940
  H      1.303000   -0.879480   -2.865760
  O      0.885520   -1.737840    0.052730
  H      1.284090   -0.839590    0.017130
  H      1.032320   -2.090180   -0.841890
  O     -1.737840   -0.885520   -0.052730
  H     -2.090180   -1.032320    0.841890
  H     -0.839590   -1.284090   -0.017130
  O      1.752130    0.741530   -2.896280
  H      2.036450    0.920500   -1.984040
  H      0.921210    1.242140   -2.984230
  O      0.741530   -1.752130    2.896280
  H      0.920500   -2.036450    1.984040
  H      1.242140   -0.921210    2.984230

 Total Charge           Charge          ....    0
 Multiplicity           Mult            ....    1
 Number of Electrons    NEL             ....   60
 Basis Dimension        Dim             ....  258

ORBITAL ENERGIES
----------------

  NO   OCC          E(Eh)            E(eV)
   0   2.0000     -20.616881      -561.0139
   1   2.0000     -20.597064      -560.4746
   2   2.0000     -20.575673      -559.8925
   3   2.0000     -20.554907      -559.3275
   4   2.0000     -20.513817      -558.2093
   5   2.0000     -20.508946      -558.0768
   6   2.0000      -1.402356       -38.1601
   7   2.0000      -1.374703       -37.4076
   8   2.0000      -1.363479       -37.1021
   9   2.0000      -1.337162       -36.3860
  10   2.0000      -1.295062       -35.2404
  11   2.0000      -1.294128       -35.2150
  12   2.0000      -0.759394       -20.6642
  13   2.0000      -0.741738       -20.1837
  14   2.0000      -0.727036       -19.7837
  15   2.0000      -0.722792       -19.6682
  16   2.0000      -0.674546       -18.3553
  17   2.0000      -0.669277       -18.2120
  18   2.0000      -0.641326       -17.4514
  19   2.0000      -0.617728       -16.8092
  20   2.0000      -0.603812       -16.4306
  21   2.0000      -0.583747       -15.8846
  22   2.0000      -0.555538       -15.1170
  23   2.0000      -0.546720       -14.8770
  24   2.0000      -0.539677       -14.6854
  25   2.0000      -0.520535       -14.1645
  26   2.0000      -0.504696       -13.7335
  27   2.0000      -0.503371       -13.6974
  28   2.0000      -0.462693       -12.5905
  29   2.0000      -0.458483       -12.4760
  30   0.0000       0.079785         2.1711
  31   0.0000       0.109248         2.9728
  32   0.0000       0.152661         4.1541
  33   0.0000       0.155346         4.2272
  34   0.0000       0.168697         4.5905

MULLIKEN ATOMIC CHARGES
-----------------------
   0 O :   -0.701869
   1 H :    0.355917
   2 H :    0.363681
   3 O :   -0.730874
   4 H :    0.341006
   5 H :    0.369361
   6 O :   -0.715646
   7 H :    0.331793
   8 H :    0.389530
   9 O :   -0.726077
  10 H :    0.328951
  11 H :    0.362762
  12 O :   -0.676646
  13 H :    0.353734
  14 H :    0.372941
  15 O :   -0.725677
  16 H :    0.366460
  17 H :    0.340654
Sum of atomic charges:   -0.0000000

LOEWDIN ATOMIC CHARGES
----------------------
   0 O :   -0.314335
   1 H :    0.164797
   2 H :    0.189287
   3 O :   -0.335493
   4 H :    0.156352
   5 H :    0.143459
   6 O :   -0.281735
   7 H :    0.165410
   8 H :    0.157082
   9 O :   -0.366025
  10 H :    0.157883
  11 H :    0.141876
  12 O :   -0.266446
  13 H :    0.171429
  14 H :    0.183325
  15 O :   -0.354495
  16 H :    0.147640
  17 H :    0.139989

  Mayer bond orders larger than 0.100000
B(  0-O ,  1-H ) :   0.8398 B(  0-O ,  2-H ) :   0.8282 B(  3-O ,  4-H ) :   0.8486
B(  3-O ,  5-H ) :   0.7709 B(  6-O ,  7-H ) :   0.8434 B(  6-O ,  8-H ) :   0.7823
B(  9-O , 10-H ) :   0.8566 B(  9-O , 11-H ) :   0.7999 B( 12-O , 13-H ) :   0.8395
B( 12-O , 14-H ) :   0.8273 B( 15-O , 16-H ) :   0.8255 B( 15-O , 17-H ) :   0.8328

MP2 TOTAL ENERGY:     -457.916858068 Eh
FINAL SINGLE POINT ENERGY      -457.916858067738

DIPOLE MOMENT
-------------
                                X             Y             Z
Electronic contribution:      0.14133       0.03118      -0.40989
Nuclear contribution   :      1.38919       2.00920       0.00000
                        -----------------------------------------
Total Dipole Moment    :      1.53053       2.04038      -0.40989
                        -----------------------------------------
Magnitude (a.u.)       :      2.58334
Magnitude (Debye)      :      6.56634

Rotational constants in cm-1:     0.056019     0.025026     0.021317
Rotational constants in MHz :  1679.398191   750.274653   639.058702

                             ****ORCA TERMINATED NORMALLY****
TOTAL RUN TIME: 0 days 0 hours 0 minutes 59 seconds 903 msec
