                         Program Version 4.2.0 -  RELEASE  -
|  1> # 12meoh.boyd.etal.mol2,3,6
|  2> ! MP2 def2-TZVP EnGrad TightSCF
|  3>
|  4> %pal
|  5>     nprocs 6
|  6> end
|  7>
|  8> %maxcore 8000
|  9>
| 10> %scf
| 11>     ConvForced true
| 12> end
| 13>
| 14> *xyz 0 1
| 15> O  -3.839777402   2.233595098   0.660436763
| 16> H  -2.958345897   1.907036203   0.973588449
| 17> C  -3.600368059   3.168790682  -0.390480452
| 18> H  -4.551709193   3.344148967  -0.901254863
| 19> H  -2.868237594   2.789240199  -1.113617525
| 20> H  -3.243594915   4.128998607   0.009549480
| 21> O  -3.821405976  -2.118091637   0.596795346
| 22> H  -4.342989117  -1.344303030   0.251966383
| 23> C  -3.443883586  -1.809641231   1.934889393
| 24> H  -2.831494349  -2.637429600   2.305201764
| 25> H  -4.325601146  -1.719364371   2.585074667
| 26> H  -2.858527126  -0.882644791   1.996110694
| 27> O   2.622209273  -1.703002590  -1.445859723
| 28> H   1.828551432  -1.986513781  -0.909754968
| 29> C   2.781117675  -2.615822239  -2.525472890
| 30> H   3.691063626  -2.339003544  -3.065143454
| 31> H   1.934727323  -2.559520367  -3.223226661
| 32> H   2.879948338  -3.653846211  -2.177750170
| 33> *
| 34>
| 35>                          ****END OF INPUT****

CARTESIAN COORDINATES (ANGSTROEM)
---------------------------------
  O     -3.839777    2.233595    0.660437
  H     -2.958346    1.907036    0.973588
  C     -3.600368    3.168791   -0.390480
  H     -4.551709    3.344149   -0.901255
  H     -2.868238    2.789240   -1.113618
  H     -3.243595    4.128999    0.009549
  O     -3.821406   -2.118092    0.596795
  H     -4.342989   -1.344303    0.251966
  C     -3.443884   -1.809641    1.934889
  H     -2.831494   -2.637430    2.305202
  H     -4.325601   -1.719364    2.585075
  H     -2.858527   -0.882645    1.996111
  O      2.622209   -1.703003   -1.445860
  H      1.828551   -1.986514   -0.909755
  C      2.781118   -2.615822   -2.525473
  H      3.691064   -2.339004   -3.065143
  H      1.934727   -2.559520   -3.223227
  H      2.879948   -3.653846   -2.177750

 Total Charge           Charge          ....    0
 Multiplicity           Mult            ....    1
 Number of Electrons    NEL             ....   54
 Basis Dimension        Dim             ....  258

ORBITAL ENERGIES
----------------

  NO   OCC          E(Eh)            E(eV)
   0   2.0000     -20.565763      -559.6228
   1   2.0000     -20.557523      -559.3986
   2   2.0000     -20.556313      -559.3657
   3   2.0000     -11.277807      -306.8847
   4   2.0000     -11.271924      -306.7246
   5   2.0000     -11.270994      -306.6993
   6   2.0000      -1.354905       -36.8688
   7   2.0000      -1.345632       -36.6165
   8   2.0000      -1.345573       -36.6149
   9   2.0000      -0.926172       -25.2024
  10   2.0000      -0.918978       -25.0067
  11   2.0000      -0.918779       -25.0013
  12   2.0000      -0.689477       -18.7616
  13   2.0000      -0.680483       -18.5169
  14   2.0000      -0.680142       -18.5076
  15   2.0000      -0.623540       -16.9674
  16   2.0000      -0.617339       -16.7987
  17   2.0000      -0.616479       -16.7753
  18   2.0000      -0.597507       -16.2590
  19   2.0000      -0.590828       -16.0773
  20   2.0000      -0.589590       -16.0436
  21   2.0000      -0.509016       -13.8510
  22   2.0000      -0.500330       -13.6147
  23   2.0000      -0.499408       -13.5896
  24   2.0000      -0.456961       -12.4345
  25   2.0000      -0.448843       -12.2136
  26   2.0000      -0.448586       -12.2067
  27   0.0000       0.112471         3.0605
  28   0.0000       0.135373         3.6837
  29   0.0000       0.154814         4.2127
  30   0.0000       0.168003         4.5716
  31   0.0000       0.175962         4.7882

MULLIKEN ATOMIC CHARGES
-----------------------
   0 O :   -0.502842
   1 H :    0.323900
   2 C :   -0.178245
   3 H :    0.130563
   4 H :    0.116220
   5 H :    0.114187
   6 O :   -0.503058
   7 H :    0.328129
   8 C :   -0.160974
   9 H :    0.127103
  10 H :    0.114688
  11 H :    0.090331
  12 O :   -0.500416
  13 H :    0.322933
  14 C :   -0.171529
  15 H :    0.128625
  16 H :    0.110182
  17 H :    0.110202
Sum of atomic charges:   -0.0000000

LOEWDIN ATOMIC CHARGES
----------------------
   0 O :   -0.113219
   1 H :    0.187516
   2 C :   -0.376756
   3 H :    0.110220
   4 H :    0.097391
   5 H :    0.097440
   6 O :   -0.111345
   7 H :    0.192849
   8 C :   -0.381268
   9 H :    0.109093
  10 H :    0.097906
  11 H :    0.090172
  12 O :   -0.112171
  13 H :    0.193031
  14 C :   -0.382200
  15 H :    0.110038
  16 H :    0.095526
  17 H :    0.095777

  Mayer bond orders larger than 0.100000
B(  0-O ,  1-H ) :   0.8414 B(  0-O ,  2-C ) :   0.9187 B(  2-C ,  3-H ) :   0.9378
B(  2-C ,  4-H ) :   0.9408 B(  2-C ,  5-H ) :   0.9383 B(  6-O ,  7-H ) :   0.8377
B(  6-O ,  8-C ) :   0.9301 B(  8-C ,  9-H ) :   0.9381 B(  8-C , 10-H ) :   0.9418
B(  8-C , 11-H ) :   0.9376 B( 12-O , 13-H ) :   0.8407 B( 12-O , 14-C ) :   0.9252
B( 14-C , 15-H ) :   0.9373 B( 14-C , 16-H ) :   0.9391 B( 14-C , 17-H ) :   0.9392

MP2 TOTAL ENERGY:     -346.522114722 Eh
FINAL SINGLE POINT ENERGY      -346.522114722038

DIPOLE MOMENT
-------------
                                X             Y             Z
Electronic contribution:     -0.93672      -0.41135       0.89896
Nuclear contribution   :      0.96140       0.67768      -0.94211
                        -----------------------------------------
Total Dipole Moment    :      0.02468       0.26633      -0.04315
                        -----------------------------------------
Magnitude (a.u.)       :      0.27093
Magnitude (Debye)      :      0.68864

Rotational constants in cm-1:     0.044010     0.013676     0.010897
Rotational constants in MHz :  1319.400823   409.984167   326.687895

                             ****ORCA TERMINATED NORMALLY****
TOTAL RUN TIME: 0 days 0 hours 0 minutes 48 seconds 588 msec
