                         Program Version 4.2.0 -  RELEASE  -
|  1> # 12mecn.remya.etal.2.mol1,3,11
|  2> ! MP2 def2-TZVP EnGrad TightSCF
|  3>
|  4> %pal
|  5>     nprocs 6
|  6> end
|  7>
|  8> %maxcore 8000
|  9>
| 10> %scf
| 11>     ConvForced true
| 12> end
| 13>
| 14> *xyz 0 1
| 15> C  -4.697980000  -0.249690000   1.746215000
| 16> H  -4.927570000   0.755530000   2.111799000
| 17> H  -3.709180000  -0.561560000   2.093253000
| 18> H  -5.432280000  -0.961520000   2.128066000
| 19> C  -4.714100000  -0.247110000   0.301670000
| 20> N  -4.729750000  -0.234960000  -0.865260000
| 21> C  -5.181310000   2.853865000  -1.626100000
| 22> H  -5.488260000   3.811434000  -2.053310000
| 23> H  -5.857590000   2.068112000  -1.968630000
| 24> H  -4.170750000   2.611402000  -1.966640000
| 25> C  -5.187260000   2.919160000  -0.181450000
| 26> N  -5.181700000   2.970641000   0.983640000
| 27> C   4.214163000   3.378139000   1.593627000
| 28> H   3.242643000   3.657109000   2.012358000
| 29> H   4.969258000   4.086643000   1.941290000
| 30> H   4.482966000   2.372549000   1.931698000
| 31> C   4.130759000   3.388436000   0.150192000
| 32> N   4.050180000   3.381449000  -1.013420000
| 33> *
| 34>
| 35>                          ****END OF INPUT****

CARTESIAN COORDINATES (ANGSTROEM)
---------------------------------
  C     -4.697980   -0.249690    1.746215
  H     -4.927570    0.755530    2.111799
  H     -3.709180   -0.561560    2.093253
  H     -5.432280   -0.961520    2.128066
  C     -4.714100   -0.247110    0.301670
  N     -4.729750   -0.234960   -0.865260
  C     -5.181310    2.853865   -1.626100
  H     -5.488260    3.811434   -2.053310
  H     -5.857590    2.068112   -1.968630
  H     -4.170750    2.611402   -1.966640
  C     -5.187260    2.919160   -0.181450
  N     -5.181700    2.970641    0.983640
  C      4.214163    3.378139    1.593627
  H      3.242643    3.657109    2.012358
  H      4.969258    4.086643    1.941290
  H      4.482966    2.372549    1.931698
  C      4.130759    3.388436    0.150192
  N      4.050180    3.381449   -1.013420

 Total Charge           Charge          ....    0
 Multiplicity           Mult            ....    1
 Number of Electrons    NEL             ....   66
 Basis Dimension        Dim             ....  333

ORBITAL ENERGIES
----------------

  NO   OCC          E(Eh)            E(eV)
   0   2.0000     -15.573400      -423.7737
   1   2.0000     -15.570771      -423.7022
   2   2.0000     -15.569915      -423.6789
   3   2.0000     -11.285501      -307.0941
   4   2.0000     -11.282438      -307.0107
   5   2.0000     -11.282352      -307.0084
   6   2.0000     -11.280378      -306.9547
   7   2.0000     -11.272134      -306.7304
   8   2.0000     -11.271204      -306.7051
   9   2.0000      -1.217819       -33.1385
  10   2.0000      -1.214932       -33.0600
  11   2.0000      -1.212985       -33.0070
  12   2.0000      -1.043954       -28.4074
  13   2.0000      -1.036418       -28.2024
  14   2.0000      -1.032781       -28.1034
  15   2.0000      -0.700860       -19.0714
  16   2.0000      -0.694811       -18.9068
  17   2.0000      -0.690803       -18.7977
  18   2.0000      -0.632206       -17.2032
  19   2.0000      -0.631391       -17.1810
  20   2.0000      -0.631285       -17.1781
  21   2.0000      -0.621796       -16.9199
  22   2.0000      -0.617595       -16.8056
  23   2.0000      -0.615689       -16.7538
  24   2.0000      -0.558619       -15.2008
  25   2.0000      -0.556187       -15.1346
  26   2.0000      -0.555534       -15.1168
  27   2.0000      -0.462994       -12.5987
  28   2.0000      -0.458056       -12.4643
  29   2.0000      -0.458044       -12.4640
  30   2.0000      -0.457939       -12.4612
  31   2.0000      -0.456653       -12.4262
  32   2.0000      -0.452201       -12.3050
  33   0.0000       0.118829         3.2335
  34   0.0000       0.126778         3.4498
  35   0.0000       0.145197         3.9510
  36   0.0000       0.170868         4.6496
  37   0.0000       0.171270         4.6605

MULLIKEN ATOMIC CHARGES
-----------------------
   0 C :   -0.286891
   1 H :    0.205579
   2 H :    0.164973
   3 H :    0.166607
   4 C :   -0.111424
   5 N :   -0.139575
   6 C :   -0.263602
   7 H :    0.171269
   8 H :    0.184671
   9 H :    0.174246
  10 C :   -0.115532
  11 N :   -0.150321
  12 C :   -0.280749
  13 H :    0.172780
  14 H :    0.172265
  15 H :    0.172042
  16 C :   -0.145373
  17 N :   -0.090965
Sum of atomic charges:    0.0000000

LOEWDIN ATOMIC CHARGES
----------------------
   0 C :   -0.282524
   1 H :    0.157073
   2 H :    0.151999
   3 H :    0.150499
   4 C :   -0.209567
   5 N :    0.035201
   6 C :   -0.284264
   7 H :    0.148793
   8 H :    0.156052
   9 H :    0.157253
  10 C :   -0.208386
  11 N :    0.027872
  12 C :   -0.284161
  13 H :    0.153064
  14 H :    0.151094
  15 H :    0.152955
  16 C :   -0.219363
  17 N :    0.046411

  Mayer bond orders larger than 0.100000
B(  0-C ,  1-H ) :   0.9014 B(  0-C ,  2-H ) :   0.9156 B(  0-C ,  3-H ) :   0.9167
B(  0-C ,  4-C ) :   0.8999 B(  4-C ,  5-N ) :   2.7890 B(  6-C ,  7-H ) :   0.9103
B(  6-C ,  8-H ) :   0.9101 B(  6-C ,  9-H ) :   0.9135 B(  6-C , 10-C ) :   0.9123
B( 10-C , 11-N ) :   2.7741 B( 12-C , 13-H ) :   0.9163 B( 12-C , 14-H ) :   0.9165
B( 12-C , 15-H ) :   0.9164 B( 12-C , 16-C ) :   0.9023 B( 16-C , 17-N ) :   2.8368

MP2 TOTAL ENERGY:     -397.459203498 Eh
FINAL SINGLE POINT ENERGY      -397.459203498045

DIPOLE MOMENT
-------------
                                X             Y             Z
Electronic contribution:     -0.24880       0.20810      -3.13093
Nuclear contribution   :      0.36557      -0.28666       4.63256
                        -----------------------------------------
Total Dipole Moment    :      0.11677      -0.07855       1.50163
                        -----------------------------------------
Magnitude (a.u.)       :      1.50821
Magnitude (Debye)      :      3.83356

Rotational constants in cm-1:     0.043839     0.006696     0.006413
Rotational constants in MHz :  1314.270839   200.745082   192.270955

                             ****ORCA TERMINATED NORMALLY****
TOTAL RUN TIME: 0 days 0 hours 2 minutes 31 seconds 346 msec
