                         Program Version 3.0.3 - RELEASE   -
|  1> ! BP86 Def2-SVP TightSCF Opt D3BJ
|  2>
|  3> %pal nprocs 12 end
|  4>
|  5> %scf
|  6>         maxiter 800
|  7> end
|  8>
|  9> * xyz  0  1
| 10> O  3.68673883	1.23187706	-2.60294835
| 11> H  4.26054145	1.76864888	-3.14962779
| 12> H  3.09727029	0.80256744	-3.22299022
| 13> O  -2.20151805	0.88369353	-0.45467850
| 14> H  -1.56982527	1.37346851	0.07193003
| 15> H  -3.04777350	1.06783422	-0.04703187
| 16> O  -0.15539746	0.41381230	-2.29646286
| 17> H  -1.00769856	0.63757502	-1.92263814
| 18> H  0.47368100	0.91273602	-1.77534169
| 19> O  1.91331924	-0.13577592	-4.09986580
| 20> H  2.06315791	-1.05469775	-3.87768819
| 21> H  1.06394884	0.07010273	-3.70946120
| 22> O  2.47741640	-2.62209188	-2.97857589
| 23> H  3.14043070	-2.20937069	-2.42512751
| 24> H  2.91683995	-3.38737272	-3.34936429
| 25> O  -4.32680824	1.23272157	1.28219881
| 26> H  -4.18160980	0.39744924	1.72657411
| 27> H  -5.27891643	1.32716732	1.25388218
| 28> O  0.07498870	-0.40409481	2.38020900
| 29> H  -0.42248592	-0.28517767	3.18928846
| 30> H  -0.50924095	-0.90457512	1.81062404
| 31> O  -3.60967238	-1.04895038	2.52153071
| 32> H  -3.04802975	-0.76851772	3.24412805
| 33> H  -3.01378836	-1.47642432	1.90637211
| 34> O  -1.83734003	0.15750353	4.29932996
| 35> H  -2.05608420	1.00936325	3.92154980
| 36> H  -1.89846967	0.29157868	5.24512004
| 37> O  1.72325711	1.55006278	-0.67969251
| 38> H  2.44981091	1.66073510	-1.29296493
| 39> H  1.93693308	0.75220733	-0.19595588
| 40> O  -2.43737461	2.41276562	2.95396474
| 41> H  -1.69764546	2.53901294	2.35974740
| 42> H  -3.16569223	2.16992517	2.38228842
| 43> O  -1.63120004	-1.56116791	0.60915585
| 44> H  -1.89945602	-0.75831546	0.16227945
| 45> H  -1.05418979	-2.00173839	-0.01469403
| 46> O  -0.32595277	2.00256596	1.16300680
| 47> H  -0.10547212	1.21048837	1.65314272
| 48> H  0.42404410	2.14384994	0.58527383
| 49> O  4.13373609	-1.22803013	-1.37562426
| 50> H  4.15057702	-0.34669909	-1.74872456
| 51> H  3.64748784	-1.13268650	-0.55665901
| 52> O  2.11254402	-0.85522214	0.52429446
| 53> H  1.63783794	-0.77969805	1.35205174
| 54> H  1.53123998	-1.36492053	-0.04008573
| 55> O  0.40326619	-2.02967275	-1.24584320
| 56> H  1.02044639	-2.44339771	-1.84929337
| 57> H  0.14212599	-1.22111291	-1.68660235
| 58> **                         ****END OF INPUT****
 Total Charge           Charge          ....    0
 Multiplicity           Mult            ....    1
 Number of Electrons    NEL             ....  160
Dispersion correction           -0.054933193
FINAL SINGLE POINT ENERGY     -1222.210848835211
Dispersion correction            ...
Dispersion correction           -0.054253458
FINAL SINGLE POINT ENERGY     -1222.241418839516
Dispersion correction            ...
Dispersion correction           -0.054451468
FINAL SINGLE POINT ENERGY     -1222.250842273670
Dispersion correction            ...
FINAL SINGLE POINT ENERGY     -1222.254924347607
FINAL SINGLE POINT ENERGY     -1222.258173609860
FINAL SINGLE POINT ENERGY     -1222.260960018264
FINAL SINGLE POINT ENERGY     -1222.263212265657
FINAL SINGLE POINT ENERGY     -1222.264858064222
FINAL SINGLE POINT ENERGY     -1222.265902116848
FINAL SINGLE POINT ENERGY     -1222.266411125265
FINAL SINGLE POINT ENERGY     -1222.268017620381
FINAL SINGLE POINT ENERGY     -1222.268030935518
FINAL SINGLE POINT ENERGY     -1222.268042958565
FINAL SINGLE POINT ENERGY     -1222.268053859138
FINAL SINGLE POINT ENERGY     -1222.268063965877
FINAL SINGLE POINT ENERGY     -1222.268072255227
FINAL SINGLE POINT ENERGY     -1222.268078814545
Dispersion correction            ...
Dispersion correction           -0.058796719
FINAL SINGLE POINT ENERGY     -1222.268083999876
Dispersion correction            ...
Dispersion correction           -0.058807963
FINAL SINGLE POINT ENERGY     -1222.268087993609
Dispersion correction            ...
                    ***********************HURRAY********************

CARTESIAN COORDINATES (ANGSTROEM)
---------------------------------
  O      3.481732    1.105224   -2.475533
  H      4.111890    1.665694   -2.963956
  H      2.849339    0.679647   -3.193209
  O     -2.106394    0.819530   -0.501748
  H     -1.459670    1.340932    0.085504
  H     -2.993174    1.019836   -0.082312
  O     -0.153823    0.393689   -2.274783
  H     -1.053244    0.624757   -1.912297
  H      0.487437    0.910981   -1.678149
  O      1.842710   -0.059539   -4.055273
  H      1.999137   -1.004259   -3.768595
  H      0.960569    0.156834   -3.649125
  O      2.357712   -2.429954   -2.809743
  H      3.106453   -2.042308   -2.189055
  H      2.728523   -3.232813   -3.218672
  O     -4.062655    1.135349    1.267820
  H     -3.950295    0.198768    1.720644
  H     -5.022161    1.294644    1.203632
  O      0.131437   -0.372690    2.267061
  H     -0.379185   -0.264683    3.122191
  H     -0.523264   -0.885714    1.679620
  O     -3.568344   -1.101236    2.412828
  H     -2.964559   -0.769405    3.136354
  H     -2.938497   -1.533986    1.774689
  O     -1.775502    0.166386    4.036619
  H     -1.992285    1.122169    3.669744
  H     -1.809274    0.231553    5.008561
  O      1.600893    1.524164   -0.644079
  H      2.372706    1.650095   -1.269556
  H      1.850800    0.669785   -0.152793
  O     -2.314611    2.409117    2.927925
  H     -1.550355    2.536383    2.302563
  H     -3.052544    2.106341    2.325525
  O     -1.590319   -1.525563    0.625881
  H     -1.838761   -0.671438    0.133897
  H     -0.997531   -2.000030   -0.021174
  O     -0.354069    1.967017    1.114302
  H     -0.100420    1.109562    1.598767
  H      0.431764    2.146995    0.528017
  O      4.057115   -1.282888   -1.282250
  H      4.029907   -0.367453   -1.683464
  H      3.554067   -1.171274   -0.430395
  O      2.093512   -0.807578    0.518661
  H      1.620166   -0.732334    1.393665
  H      1.433667   -1.316363   -0.064513
  O      0.355832   -1.938579   -1.133455
  H      0.980685   -2.391513   -1.771138
  H      0.112881   -1.083851   -1.629203

 Multiplicity           Mult            ....    1
 Number of Electrons    NEL             ....  160
 Basis Dimension        Dim             ....  384

ORBITAL ENERGIES
----------------

  NO   OCC          E(Eh)            E(eV)
   0   2.0000     -18.790427      -511.3135
   1   2.0000     -18.789879      -511.2986
   2   2.0000     -18.789757      -511.2953
   3   2.0000     -18.789644      -511.2922
   4   2.0000     -18.776658      -510.9389
   5   2.0000     -18.776402      -510.9319
   6   2.0000     -18.776293      -510.9289
   7   2.0000     -18.775732      -510.9136
   8   2.0000     -18.774928      -510.8918
   9   2.0000     -18.774851      -510.8897
  10   2.0000     -18.774830      -510.8891
  11   2.0000     -18.774716      -510.8860
  12   2.0000     -18.768281      -510.7109
  13   2.0000     -18.768203      -510.7088
  14   2.0000     -18.767743      -510.6962
  15   2.0000     -18.767625      -510.6930
  16   2.0000      -0.932746       -25.3813
  17   2.0000      -0.926640       -25.2152
  18   2.0000      -0.916795       -24.9473
  19   2.0000      -0.914972       -24.8977
  20   2.0000      -0.914878       -24.8951
  21   2.0000      -0.906327       -24.6624
  22   2.0000      -0.905641       -24.6437
  23   2.0000      -0.905509       -24.6402
  24   2.0000      -0.893349       -24.3093
  25   2.0000      -0.893252       -24.3066
  26   2.0000      -0.889907       -24.2156
  27   2.0000      -0.884554       -24.0699
  28   2.0000      -0.884457       -24.0673
  29   2.0000      -0.884398       -24.0657
  30   2.0000      -0.875559       -23.8252
  31   2.0000      -0.865473       -23.5507
  32   2.0000      -0.491338       -13.3700
  33   2.0000      -0.489112       -13.3094
  34   2.0000      -0.488726       -13.2989
  35   2.0000      -0.488608       -13.2957
  36   2.0000      -0.482062       -13.1176
  37   2.0000      -0.478836       -13.0298
  38   2.0000      -0.477152       -12.9840
  39   2.0000      -0.476913       -12.9775
  40   2.0000      -0.467083       -12.7100
  41   2.0000      -0.464477       -12.6391
  42   2.0000      -0.460298       -12.5253
  43   2.0000      -0.459733       -12.5100
  44   2.0000      -0.454545       -12.3688
  45   2.0000      -0.453541       -12.3415
  46   2.0000      -0.451355       -12.2820
  47   2.0000      -0.450701       -12.2642
  48   2.0000      -0.414108       -11.2685
  49   2.0000      -0.402051       -10.9404
  50   2.0000      -0.377189       -10.2638
  51   2.0000      -0.376238       -10.2380
  52   2.0000      -0.367839       -10.0094
  53   2.0000      -0.360970        -9.8225
  54   2.0000      -0.360534        -9.8106
  55   2.0000      -0.351561        -9.5665
  56   2.0000      -0.340676        -9.2703
  57   2.0000      -0.336418        -9.1544
  58   2.0000      -0.335989        -9.1427
  59   2.0000      -0.332251        -9.0410
  60   2.0000      -0.316336        -8.6079
  61   2.0000      -0.315802        -8.5934
  62   2.0000      -0.303273        -8.2525
  63   2.0000      -0.285306        -7.7636
  64   2.0000      -0.275830        -7.5057
  65   2.0000      -0.275591        -7.4992
  66   2.0000      -0.275003        -7.4832
  67   2.0000      -0.273447        -7.4409
  68   2.0000      -0.267210        -7.2712
  69   2.0000      -0.265983        -7.2378
  70   2.0000      -0.265680        -7.2295
  71   2.0000      -0.262121        -7.1327
  72   2.0000      -0.261907        -7.1268
  73   2.0000      -0.261757        -7.1228
  74   2.0000      -0.259729        -7.0676
  75   2.0000      -0.255873        -6.9627
  76   2.0000      -0.255171        -6.9436
  77   2.0000      -0.254006        -6.9119
  78   2.0000      -0.253866        -6.9080
  79   2.0000      -0.253167        -6.8890
  80   0.0000       0.004470         0.1216
  81   0.0000       0.018014         0.4902
  82   0.0000       0.035836         0.9751
  83   0.0000       0.036264         0.9868
  84   0.0000       0.054667         1.4876

MULLIKEN ATOMIC CHARGES
-----------------------
   0 O :   -0.338591
   1 H :    0.184549
   2 H :    0.171433
   3 O :   -0.329628
   4 H :    0.140541
   5 H :    0.169586
   6 O :   -0.324072
   7 H :    0.185053
   8 H :    0.137755
   9 O :   -0.308148
  10 H :    0.149336
  11 H :    0.171868
  12 O :   -0.340770
  13 H :    0.171709
  14 H :    0.185695
  15 O :   -0.341241
  16 H :    0.169793
  17 H :    0.185891
  18 O :   -0.329126
  19 H :    0.168273
  20 H :    0.138434
  21 O :   -0.307560
  22 H :    0.148992
  23 H :    0.173584
  24 O :   -0.338821
  25 H :    0.168247
  26 H :    0.185740
  27 O :   -0.330817
  28 H :    0.169818
  29 H :    0.133647
  30 O :   -0.307194
  31 H :    0.173250
  32 H :    0.149820
  33 O :   -0.326174
  34 H :    0.131678
  35 H :    0.186720
  36 O :   -0.326705
  37 H :    0.129920
  38 H :    0.187103
  39 O :   -0.309621
  40 H :    0.146605
  41 H :    0.174559
  42 O :   -0.324737
  43 H :    0.186547
  44 H :    0.134582
  45 O :   -0.330164
  46 H :    0.168613
  47 H :    0.134026
Sum of atomic charges:   -0.0000000

LOEWDIN ATOMIC CHARGES
----------------------
   0 O :   -0.101372
   1 H :    0.086432
   2 H :    0.031098
   3 O :   -0.096589
   4 H :    0.027825
   5 H :    0.043701
   6 O :   -0.088833
   7 H :    0.056733
   8 H :    0.027939
   9 O :   -0.079228
  10 H :    0.039910
  11 H :    0.053485
  12 O :   -0.101122
  13 H :    0.031045
  14 H :    0.086794
  15 O :   -0.101044
  16 H :    0.031120
  17 H :    0.086974
  18 O :   -0.096292
  19 H :    0.043221
  20 H :    0.027235
  21 O :   -0.080149
  22 H :    0.040151
  23 H :    0.052687
  24 O :   -0.101211
  25 H :    0.030682
  26 H :    0.086912
  27 O :   -0.095714
  28 H :    0.044358
  29 H :    0.027000
  30 O :   -0.079625
  31 H :    0.053399
  32 H :    0.039978
  33 O :   -0.087677
  34 H :    0.026880
  35 H :    0.055575
  36 O :   -0.088759
  37 H :    0.026535
  38 H :    0.057307
  39 O :   -0.080142
  40 H :    0.039652
  41 H :    0.053869
  42 O :   -0.090595
  43 H :    0.056620
  44 H :    0.027464
  45 O :   -0.094049
  46 H :    0.043146
  47 H :    0.026673

  Mayer bond orders larger than 0.1
B(  0-O ,  1-H ) :   0.9756 B(  0-O ,  2-H ) :   0.7677 B(  0-O , 28-H ) :   0.1905
B(  0-O , 40-H ) :   0.1937 B(  2-H ,  9-O ) :   0.3048 B(  3-O ,  4-H ) :   0.8291
B(  3-O ,  5-H ) :   0.8766 B(  3-O ,  7-H ) :   0.1561 B(  3-O , 34-H ) :   0.2615
B(  4-H , 36-O ) :   0.2531 B(  5-H , 15-O ) :   0.1919 B(  6-O ,  7-H ) :   0.8926
B(  6-O ,  8-H ) :   0.8273 B(  6-O , 11-H ) :   0.1512 B(  6-O , 47-H ) :   0.2611
B(  8-H , 27-O ) :   0.2564 B(  9-O , 10-H ) :   0.8968 B(  9-O , 11-H ) :   0.9124
B( 10-H , 12-O ) :   0.1907 B( 12-O , 13-H ) :   0.7668 B( 12-O , 14-H ) :   0.9753
B( 12-O , 46-H ) :   0.1931 B( 13-H , 39-O ) :   0.3060 B( 15-O , 16-H ) :   0.7666
B( 15-O , 17-H ) :   0.9756 B( 15-O , 32-H ) :   0.1894 B( 16-H , 21-O ) :   0.3085
B( 18-O , 19-H ) :   0.8748 B( 18-O , 20-H ) :   0.8274 B( 18-O , 37-H ) :   0.2622
B( 18-O , 43-H ) :   0.1568 B( 19-H , 24-O ) :   0.1950 B( 20-H , 33-O ) :   0.2546
B( 21-O , 22-H ) :   0.8979 B( 21-O , 23-H ) :   0.9113 B( 22-H , 24-O ) :   0.1890
B( 23-H , 33-O ) :   0.1511 B( 24-O , 25-H ) :   0.7664 B( 24-O , 26-H ) :   0.9760
B( 25-H , 30-O ) :   0.3080 B( 27-O , 28-H ) :   0.8774 B( 27-O , 29-H ) :   0.8268
B( 27-O , 38-H ) :   0.1537 B( 29-H , 42-O ) :   0.2591 B( 30-O , 31-H ) :   0.9116
B( 30-O , 32-H ) :   0.8970 B( 31-H , 36-O ) :   0.1507 B( 33-O , 34-H ) :   0.8267
B( 33-O , 35-H ) :   0.8915 B( 35-H , 45-O ) :   0.1573 B( 36-O , 37-H ) :   0.8249
B( 36-O , 38-H ) :   0.8936 B( 39-O , 40-H ) :   0.8950 B( 39-O , 41-H ) :   0.9101
B( 41-H , 42-O ) :   0.1518 B( 42-O , 43-H ) :   0.8906 B( 42-O , 44-H ) :   0.8286
B( 44-H , 45-O ) :   0.2548 B( 45-O , 46-H ) :   0.8768 B( 45-O , 47-H ) :   0.8257

Dispersion correction           -0.058818275
FINAL SINGLE POINT ENERGY     -1222.268091467645

DIPOLE MOMENT
-------------
                                X             Y             Z
Electronic contribution:     -0.00572       0.00805      -0.00830
Nuclear contribution   :      0.01192      -0.00611       0.01440
                        -----------------------------------------
Total Dipole Moment    :      0.00620       0.00193       0.00610
                        -----------------------------------------
Magnitude (a.u.)       :      0.00891
Magnitude (Debye)      :      0.02264

                             ****ORCA TERMINATED NORMALLY****
TOTAL RUN TIME: 0 days 0 hours 32 minutes 21 seconds 81 msec
