                         Program Version 3.0.3 - RELEASE   -
|  1> ! B3LYP Def2-SVP def2-SVP/J RIJCOSX TightSCF Grid4 D3BJ OPT
|  2>
|  3> %pal nprocs 12 end
|  4>
|  5> %scf
|  6>         maxiter 400
|  7> end
|  8>
|  9> * xyz  0  1
| 10> O  3.68673883	1.23187706	-2.60294835
| 11> H  4.26054145	1.76864888	-3.14962779
| 12> H  3.09727029	0.80256744	-3.22299022
| 13> O  -2.20151805	0.88369353	-0.45467850
| 14> H  -1.56982527	1.37346851	0.07193003
| 15> H  -3.04777350	1.06783422	-0.04703187
| 16> O  -0.15539746	0.41381230	-2.29646286
| 17> H  -1.00769856	0.63757502	-1.92263814
| 18> H  0.47368100	0.91273602	-1.77534169
| 19> O  1.91331924	-0.13577592	-4.09986580
| 20> H  2.06315791	-1.05469775	-3.87768819
| 21> H  1.06394884	0.07010273	-3.70946120
| 22> O  2.47741640	-2.62209188	-2.97857589
| 23> H  3.14043070	-2.20937069	-2.42512751
| 24> H  2.91683995	-3.38737272	-3.34936429
| 25> O  -4.32680824	1.23272157	1.28219881
| 26> H  -4.18160980	0.39744924	1.72657411
| 27> H  -5.27891643	1.32716732	1.25388218
| 28> O  0.07498870	-0.40409481	2.38020900
| 29> H  -0.42248592	-0.28517767	3.18928846
| 30> H  -0.50924095	-0.90457512	1.81062404
| 31> O  -3.60967238	-1.04895038	2.52153071
| 32> H  -3.04802975	-0.76851772	3.24412805
| 33> H  -3.01378836	-1.47642432	1.90637211
| 34> O  -1.83734003	0.15750353	4.29932996
| 35> H  -2.05608420	1.00936325	3.92154980
| 36> H  -1.89846967	0.29157868	5.24512004
| 37> O  1.72325711	1.55006278	-0.67969251
| 38> H  2.44981091	1.66073510	-1.29296493
| 39> H  1.93693308	0.75220733	-0.19595588
| 40> O  -2.43737461	2.41276562	2.95396474
| 41> H  -1.69764546	2.53901294	2.35974740
| 42> H  -3.16569223	2.16992517	2.38228842
| 43> O  -1.63120004	-1.56116791	0.60915585
| 44> H  -1.89945602	-0.75831546	0.16227945
| 45> H  -1.05418979	-2.00173839	-0.01469403
| 46> O  -0.32595277	2.00256596	1.16300680
| 47> H  -0.10547212	1.21048837	1.65314272
| 48> H  0.42404410	2.14384994	0.58527383
| 49> O  4.13373609	-1.22803013	-1.37562426
| 50> H  4.15057702	-0.34669909	-1.74872456
| 51> H  3.64748784	-1.13268650	-0.55665901
| 52> O  2.11254402	-0.85522214	0.52429446
| 53> H  1.63783794	-0.77969805	1.35205174
| 54> H  1.53123998	-1.36492053	-0.04008573
| 55> O  0.40326619	-2.02967275	-1.24584320
| 56> H  1.02044639	-2.44339771	-1.84929337
| 57> H  0.14212599	-1.22111291	-1.68660235
| 58> **                         ****END OF INPUT****
 Total Charge           Charge          ....    0
 Multiplicity           Mult            ....    1
 Number of Electrons    NEL             ....  160
Dispersion correction           -0.058869843
FINAL SINGLE POINT ENERGY     -1221.600056032621
Dispersion correction            ...
Dispersion correction           -0.058079286
FINAL SINGLE POINT ENERGY     -1221.618588162848
Dispersion correction            ...
Dispersion correction           -0.058672446
FINAL SINGLE POINT ENERGY     -1221.622101662167
Dispersion correction            ...
FINAL SINGLE POINT ENERGY     -1221.624242373674
FINAL SINGLE POINT ENERGY     -1221.625831366098
FINAL SINGLE POINT ENERGY     -1221.626878714917
FINAL SINGLE POINT ENERGY     -1221.627347179301
FINAL SINGLE POINT ENERGY     -1221.627515924116
FINAL SINGLE POINT ENERGY     -1221.627836565253
FINAL SINGLE POINT ENERGY     -1221.627974568965
FINAL SINGLE POINT ENERGY     -1221.628161032077
FINAL SINGLE POINT ENERGY     -1221.628164935635
FINAL SINGLE POINT ENERGY     -1221.628166490331
FINAL SINGLE POINT ENERGY     -1221.628163471288
FINAL SINGLE POINT ENERGY     -1221.628154015850
FINAL SINGLE POINT ENERGY     -1221.628137290837
FINAL SINGLE POINT ENERGY     -1221.628118135653
Dispersion correction            ...
Dispersion correction           -0.060913232
FINAL SINGLE POINT ENERGY     -1221.628104650177
Dispersion correction            ...
Dispersion correction           -0.060919046
FINAL SINGLE POINT ENERGY     -1221.628100564330
Dispersion correction            ...
                    ***********************HURRAY********************

CARTESIAN COORDINATES (ANGSTROEM)
---------------------------------
  O      3.557037    1.159517   -2.553959
  H      4.168122    1.736255   -3.031333
  H      2.963966    0.734875   -3.258050
  O     -2.081329    0.844912   -0.564169
  H     -1.454948    1.344691    0.024348
  H     -2.959478    1.048992   -0.169139
  O     -0.144251    0.348038   -2.407696
  H     -1.032364    0.604327   -2.077402
  H      0.468093    0.862451   -1.817761
  O      1.938364   -0.073544   -4.196108
  H      2.080456   -0.997327   -3.888872
  H      1.052604    0.143665   -3.835204
  O      2.385927   -2.436802   -2.817323
  H      3.076684   -2.021909   -2.198117
  H      2.808036   -3.221447   -3.192269
  O     -4.074453    1.154015    1.239715
  H     -3.977392    0.264661    1.716795
  H     -5.021933    1.344381    1.218908
  O      0.074616   -0.388331    2.358886
  H     -0.392832   -0.292662    3.221176
  H     -0.570741   -0.885864    1.789229
  O     -3.605041   -1.075337    2.489431
  H     -3.030378   -0.797442    3.236504
  H     -2.997389   -1.535398    1.872392
  O     -1.792969    0.140216    4.224976
  H     -1.989034    1.055325    3.834527
  H     -1.844993    0.229736    5.185612
  O      1.612136    1.526034   -0.696436
  H      2.385328    1.668408   -1.286566
  H      1.831805    0.698413   -0.190244
  O     -2.296939    2.366211    2.975247
  H     -1.539356    2.523738    2.372923
  H     -3.025783    2.104371    2.369603
  O     -1.653984   -1.542588    0.623880
  H     -1.867301   -0.713503    0.118059
  H     -1.073354   -2.047560    0.014648
  O     -0.312726    1.981080    1.142634
  H     -0.075216    1.151696    1.635234
  H      0.455254    2.164815    0.560211
  O      4.037511   -1.213720   -1.249477
  H      4.060058   -0.317307   -1.652772
  H      3.545499   -1.095703   -0.408762
  O      2.017549   -0.801537    0.536849
  H      1.573404   -0.739982    1.411681
  H      1.388904   -1.326899   -0.027577
  O      0.304515   -2.014961   -1.183314
  H      0.952630   -2.465411   -1.771997
  H      0.075683   -1.195589   -1.698922

 Multiplicity           Mult            ....    1
 Number of Electrons    NEL             ....  160
 Basis Dimension        Dim             ....  384

ORBITAL ENERGIES
----------------

  NO   OCC          E(Eh)            E(eV)
   0   2.0000     -19.144336      -520.9439
   1   2.0000     -19.142666      -520.8984
   2   2.0000     -19.142198      -520.8857
   3   2.0000     -19.141843      -520.8760
   4   2.0000     -19.131924      -520.6061
   5   2.0000     -19.129810      -520.5486
   6   2.0000     -19.128859      -520.5227
   7   2.0000     -19.128601      -520.5157
   8   2.0000     -19.127946      -520.4979
   9   2.0000     -19.127218      -520.4781
  10   2.0000     -19.126805      -520.4668
  11   2.0000     -19.126217      -520.4508
  12   2.0000     -19.119988      -520.2813
  13   2.0000     -19.119855      -520.2777
  14   2.0000     -19.119173      -520.2591
  15   2.0000     -19.116879      -520.1967
  16   2.0000      -1.016090       -27.6492
  17   2.0000      -1.010606       -27.5000
  18   2.0000      -1.001960       -27.2647
  19   2.0000      -1.000921       -27.2364
  20   2.0000      -1.000561       -27.2266
  21   2.0000      -0.992601       -27.0101
  22   2.0000      -0.991507       -26.9803
  23   2.0000      -0.990708       -26.9585
  24   2.0000      -0.979838       -26.6627
  25   2.0000      -0.978402       -26.6237
  26   2.0000      -0.977003       -26.5856
  27   2.0000      -0.972306       -26.4578
  28   2.0000      -0.971010       -26.4225
  29   2.0000      -0.970063       -26.3968
  30   2.0000      -0.963159       -26.2089
  31   2.0000      -0.955559       -26.0021
  32   2.0000      -0.545979       -14.8568
  33   2.0000      -0.542985       -14.7754
  34   2.0000      -0.540327       -14.7030
  35   2.0000      -0.539654       -14.6847
  36   2.0000      -0.534767       -14.5517
  37   2.0000      -0.533779       -14.5249
  38   2.0000      -0.529251       -14.4017
  39   2.0000      -0.527364       -14.3503
  40   2.0000      -0.520795       -14.1716
  41   2.0000      -0.519684       -14.1413
  42   2.0000      -0.514604       -14.0031
  43   2.0000      -0.513881       -13.9834
  44   2.0000      -0.509489       -13.8639
  45   2.0000      -0.507938       -13.8217
  46   2.0000      -0.503668       -13.7055
  47   2.0000      -0.503168       -13.6919
  48   2.0000      -0.458400       -12.4737
  49   2.0000      -0.445884       -12.1331
  50   2.0000      -0.425298       -11.5729
  51   2.0000      -0.423960       -11.5365
  52   2.0000      -0.413461       -11.2509
  53   2.0000      -0.407951       -11.1009
  54   2.0000      -0.407317       -11.0837
  55   2.0000      -0.397880       -10.8269
  56   2.0000      -0.388242       -10.5646
  57   2.0000      -0.383715       -10.4414
  58   2.0000      -0.382498       -10.4083
  59   2.0000      -0.378943       -10.3116
  60   2.0000      -0.364924        -9.9301
  61   2.0000      -0.362775        -9.8716
  62   2.0000      -0.352018        -9.5789
  63   2.0000      -0.335173        -9.1205
  64   2.0000      -0.324817        -8.8387
  65   2.0000      -0.324116        -8.8197
  66   2.0000      -0.323275        -8.7968
  67   2.0000      -0.321941        -8.7605
  68   2.0000      -0.316518        -8.6129
  69   2.0000      -0.314156        -8.5486
  70   2.0000      -0.312454        -8.5023
  71   2.0000      -0.311114        -8.4659
  72   2.0000      -0.309546        -8.4232
  73   2.0000      -0.309003        -8.4084
  74   2.0000      -0.308192        -8.3863
  75   2.0000      -0.304119        -8.2755
  76   2.0000      -0.302617        -8.2346
  77   2.0000      -0.301370        -8.2007
  78   2.0000      -0.300588        -8.1794
  79   2.0000      -0.299212        -8.1420
  80   0.0000       0.026365         0.7174
  81   0.0000       0.038467         1.0468
  82   0.0000       0.056717         1.5433
  83   0.0000       0.056861         1.5473
  84   0.0000       0.076653         2.0858

MULLIKEN ATOMIC CHARGES
-----------------------
   0 O :   -0.327063
   1 H :    0.179833
   2 H :    0.165678
   3 O :   -0.329110
   4 H :    0.141690
   5 H :    0.170012
   6 O :   -0.323321
   7 H :    0.183806
   8 H :    0.138218
   9 O :   -0.315776
  10 H :    0.149769
  11 H :    0.171409
  12 O :   -0.329845
  13 H :    0.166411
  14 H :    0.179245
  15 O :   -0.328104
  16 H :    0.167399
  17 H :    0.178951
  18 O :   -0.333206
  19 H :    0.170223
  20 H :    0.142166
  21 O :   -0.317537
  22 H :    0.151798
  23 H :    0.173720
  24 O :   -0.329020
  25 H :    0.171515
  26 H :    0.178618
  27 O :   -0.334712
  28 H :    0.167874
  29 H :    0.143916
  30 O :   -0.322861
  31 H :    0.171370
  32 H :    0.147684
  33 O :   -0.328907
  34 H :    0.140570
  35 H :    0.184027
  36 O :   -0.327952
  37 H :    0.142482
  38 H :    0.182291
  39 O :   -0.318872
  40 H :    0.153669
  41 H :    0.173590
  42 O :   -0.328369
  43 H :    0.185701
  44 H :    0.140457
  45 O :   -0.331255
  46 H :    0.167483
  47 H :    0.144335
Sum of atomic charges:   -0.0000000

LOEWDIN ATOMIC CHARGES
----------------------
   0 O :   -0.100665
   1 H :    0.085654
   2 H :    0.038288
   3 O :   -0.102793
   4 H :    0.035007
   5 H :    0.049180
   6 O :   -0.097719
   7 H :    0.061421
   8 H :    0.035345
   9 O :   -0.096991
  10 H :    0.043224
  11 H :    0.057535
  12 O :   -0.100694
  13 H :    0.032723
  14 H :    0.084402
  15 O :   -0.101117
  16 H :    0.035258
  17 H :    0.084667
  18 O :   -0.099094
  19 H :    0.048215
  20 H :    0.034431
  21 O :   -0.091799
  22 H :    0.044678
  23 H :    0.054152
  24 O :   -0.103376
  25 H :    0.036985
  26 H :    0.084849
  27 O :   -0.103542
  28 H :    0.046338
  29 H :    0.028839
  30 O :   -0.096589
  31 H :    0.053548
  32 H :    0.041211
  33 O :   -0.096946
  34 H :    0.034655
  35 H :    0.058639
  36 O :   -0.094940
  37 H :    0.032370
  38 H :    0.057273
  39 O :   -0.089362
  40 H :    0.042157
  41 H :    0.053157
  42 O :   -0.089582
  43 H :    0.058376
  44 H :    0.035835
  45 O :   -0.104712
  46 H :    0.046196
  47 H :    0.035312

  Mayer bond orders larger than 0.1
B(  0-O ,  1-H ) :   0.9803 B(  0-O ,  2-H ) :   0.8211 B(  0-O , 28-H ) :   0.1628
B(  0-O , 40-H ) :   0.1650 B(  2-H ,  9-O ) :   0.2599 B(  3-O ,  4-H ) :   0.8691
B(  3-O ,  5-H ) :   0.9074 B(  3-O ,  7-H ) :   0.1267 B(  3-O , 34-H ) :   0.2224
B(  4-H , 36-O ) :   0.2173 B(  5-H , 15-O ) :   0.1592 B(  6-O ,  7-H ) :   0.9199
B(  6-O ,  8-H ) :   0.8697 B(  6-O , 11-H ) :   0.1258 B(  6-O , 47-H ) :   0.2180
B(  8-H , 27-O ) :   0.2176 B(  9-O , 10-H ) :   0.9192 B(  9-O , 11-H ) :   0.9340
B( 10-H , 12-O ) :   0.1668 B( 12-O , 13-H ) :   0.8124 B( 12-O , 14-H ) :   0.9806
B( 12-O , 46-H ) :   0.1683 B( 13-H , 39-O ) :   0.2658 B( 15-O , 16-H ) :   0.8181
B( 15-O , 17-H ) :   0.9810 B( 15-O , 32-H ) :   0.1708 B( 16-H , 21-O ) :   0.2603
B( 18-O , 19-H ) :   0.8999 B( 18-O , 20-H ) :   0.8660 B( 18-O , 37-H ) :   0.2162
B( 18-O , 43-H ) :   0.1380 B( 19-H , 24-O ) :   0.1694 B( 20-H , 33-O ) :   0.2154
B( 21-O , 22-H ) :   0.9207 B( 21-O , 23-H ) :   0.9288 B( 22-H , 24-O ) :   0.1620
B( 23-H , 33-O ) :   0.1298 B( 24-O , 25-H ) :   0.8188 B( 24-O , 26-H ) :   0.9809
B( 25-H , 30-O ) :   0.2539 B( 27-O , 28-H ) :   0.9055 B( 27-O , 29-H ) :   0.8594
B( 27-O , 38-H ) :   0.1374 B( 29-H , 42-O ) :   0.2190 B( 30-O , 31-H ) :   0.9274
B( 30-O , 32-H ) :   0.9163 B( 31-H , 36-O ) :   0.1343 B( 33-O , 34-H ) :   0.8657
B( 33-O , 35-H ) :   0.9159 B( 35-H , 45-O ) :   0.1319 B( 36-O , 37-H ) :   0.8640
B( 36-O , 38-H ) :   0.9136 B( 39-O , 40-H ) :   0.9166 B( 39-O , 41-H ) :   0.9271
B( 41-H , 42-O ) :   0.1329 B( 42-O , 43-H ) :   0.9110 B( 42-O , 44-H ) :   0.8643
B( 44-H , 45-O ) :   0.2205 B( 45-O , 46-H ) :   0.9025 B( 45-O , 47-H ) :   0.8677

Dispersion correction           -0.060919466
FINAL SINGLE POINT ENERGY     -1221.628105065568

DIPOLE MOMENT
-------------
                                X             Y             Z
Electronic contribution:      0.00268      -0.03037      -0.05170
Nuclear contribution   :      0.08499       0.06692       0.19193
                        -----------------------------------------
Total Dipole Moment    :      0.08767       0.03654       0.14023
                        -----------------------------------------
Magnitude (a.u.)       :      0.16937
Magnitude (Debye)      :      0.43051

                             ****ORCA TERMINATED NORMALLY****
TOTAL RUN TIME: 0 days 0 hours 52 minutes 17 seconds 654 msec
