                         Program Version 4.2.0 -  RELEASE  -
|  1> # 12h2o.su.etal.mol0,3,7,8,9,10,11
|  2> ! MP2 def2-TZVP EnGrad TightSCF
|  3>
|  4> %pal
|  5>     nprocs 6
|  6> end
|  7>
|  8> %maxcore 8000
|  9>
| 10> %scf
| 11>     ConvForced true
| 12> end
| 13>
| 14> *xyz 0 1
| 15> O   1.794470000   0.923410000   2.768350000
| 16> H   2.338250000   1.359750000   3.430940000
| 17> H   0.879480000   1.303000000   2.865760000
| 18> O  -1.752130000  -0.741530000  -2.896280000
| 19> H  -2.036450000  -0.920500000  -1.984040000
| 20> H  -0.921210000  -1.242140000  -2.984230000
| 21> O  -1.737840000  -0.885520000  -0.052730000
| 22> H  -2.090180000  -1.032320000   0.841890000
| 23> H  -0.839590000  -1.284090000  -0.017130000
| 24> O   1.752130000   0.741530000  -2.896280000
| 25> H   2.036450000   0.920500000  -1.984040000
| 26> H   0.921210000   1.242140000  -2.984230000
| 27> O   0.741530000  -1.752130000   2.896280000
| 28> H   0.920500000  -2.036450000   1.984040000
| 29> H   1.242140000  -0.921210000   2.984230000
| 30> O  -0.923410000   1.794470000  -2.768350000
| 31> H  -1.359750000   2.338250000  -3.430940000
| 32> H  -1.303000000   0.879480000  -2.865760000
| 33> O  -0.741530000   1.752130000   2.896280000
| 34> H  -0.920500000   2.036450000   1.984040000
| 35> H  -1.242140000   0.921210000   2.984230000
| 36> *
| 37>
| 38>                          ****END OF INPUT****

CARTESIAN COORDINATES (ANGSTROEM)
---------------------------------
  O      1.794470    0.923410    2.768350
  H      2.338250    1.359750    3.430940
  H      0.879480    1.303000    2.865760
  O     -1.752130   -0.741530   -2.896280
  H     -2.036450   -0.920500   -1.984040
  H     -0.921210   -1.242140   -2.984230
  O     -1.737840   -0.885520   -0.052730
  H     -2.090180   -1.032320    0.841890
  H     -0.839590   -1.284090   -0.017130
  O      1.752130    0.741530   -2.896280
  H      2.036450    0.920500   -1.984040
  H      0.921210    1.242140   -2.984230
  O      0.741530   -1.752130    2.896280
  H      0.920500   -2.036450    1.984040
  H      1.242140   -0.921210    2.984230
  O     -0.923410    1.794470   -2.768350
  H     -1.359750    2.338250   -3.430940
  H     -1.303000    0.879480   -2.865760
  O     -0.741530    1.752130    2.896280
  H     -0.920500    2.036450    1.984040
  H     -1.242140    0.921210    2.984230

 Total Charge           Charge          ....    0
 Multiplicity           Mult            ....    1
 Number of Electrons    NEL             ....   70
 Basis Dimension        Dim             ....  301

ORBITAL ENERGIES
----------------

  NO   OCC          E(Eh)            E(eV)
   0   2.0000     -20.610171      -560.8313
   1   2.0000     -20.609766      -560.8202
   2   2.0000     -20.578241      -559.9624
   3   2.0000     -20.555820      -559.3523
   4   2.0000     -20.551743      -559.2414
   5   2.0000     -20.540425      -558.9334
   6   2.0000     -20.528258      -558.6023
   7   2.0000      -1.395517       -37.9740
   8   2.0000      -1.389069       -37.7985
   9   2.0000      -1.366352       -37.1803
  10   2.0000      -1.342611       -36.5343
  11   2.0000      -1.330806       -36.2131
  12   2.0000      -1.325246       -36.0618
  13   2.0000      -1.309162       -35.6241
  14   2.0000      -0.752743       -20.4832
  15   2.0000      -0.751691       -20.4546
  16   2.0000      -0.726651       -19.7732
  17   2.0000      -0.725730       -19.7481
  18   2.0000      -0.708445       -19.2778
  19   2.0000      -0.700998       -19.0751
  20   2.0000      -0.678329       -18.4583
  21   2.0000      -0.636781       -17.3277
  22   2.0000      -0.634366       -17.2620
  23   2.0000      -0.603477       -16.4215
  24   2.0000      -0.594216       -16.1694
  25   2.0000      -0.572269       -15.5722
  26   2.0000      -0.569243       -15.4899
  27   2.0000      -0.553542       -15.0626
  28   2.0000      -0.546692       -14.8763
  29   2.0000      -0.538049       -14.6411
  30   2.0000      -0.513322       -13.9682
  31   2.0000      -0.505913       -13.7666
  32   2.0000      -0.498046       -13.5525
  33   2.0000      -0.489481       -13.3195
  34   2.0000      -0.475922       -12.9505
  35   0.0000       0.068626         1.8674
  36   0.0000       0.115261         3.1364
  37   0.0000       0.137941         3.7536
  38   0.0000       0.138479         3.7682
  39   0.0000       0.164984         4.4894

MULLIKEN ATOMIC CHARGES
-----------------------
   0 O :   -0.740104
   1 H :    0.344172
   2 H :    0.378903
   3 O :   -0.698739
   4 H :    0.386262
   5 H :    0.352419
   6 O :   -0.695705
   7 H :    0.354921
   8 H :    0.346421
   9 O :   -0.716943
  10 H :    0.327900
  11 H :    0.361985
  12 O :   -0.709537
  13 H :    0.318454
  14 H :    0.367340
  15 O :   -0.742014
  16 H :    0.337311
  17 H :    0.382697
  18 O :   -0.682638
  19 H :    0.369059
  20 H :    0.357837
Sum of atomic charges:   -0.0000000

LOEWDIN ATOMIC CHARGES
----------------------
   0 O :   -0.339746
   1 H :    0.157236
   2 H :    0.144970
   3 O :   -0.274573
   4 H :    0.159560
   5 H :    0.171602
   6 O :   -0.315208
   7 H :    0.171348
   8 H :    0.174719
   9 O :   -0.353539
  10 H :    0.158915
  11 H :    0.147010
  12 O :   -0.347816
  13 H :    0.153277
  14 H :    0.149416
  15 O :   -0.341754
  16 H :    0.153731
  17 H :    0.145683
  18 O :   -0.267464
  19 H :    0.178872
  20 H :    0.173761

  Mayer bond orders larger than 0.100000
B(  0-O ,  1-H ) :   0.8468 B(  0-O ,  2-H ) :   0.7654 B(  3-O ,  4-H ) :   0.8037
B(  3-O ,  5-H ) :   0.8373 B(  6-O ,  7-H ) :   0.8384 B(  6-O ,  8-H ) :   0.8373
B(  9-O , 10-H ) :   0.8584 B(  9-O , 11-H ) :   0.8039 B( 12-O , 13-H ) :   0.8626
B( 12-O , 14-H ) :   0.7983 B( 15-O , 16-H ) :   0.8505 B( 15-O , 17-H ) :   0.7580
B( 18-O , 19-H ) :   0.8296 B( 18-O , 20-H ) :   0.8335

MP2 TOTAL ENERGY:     -534.242692713 Eh
FINAL SINGLE POINT ENERGY      -534.242692712691

DIPOLE MOMENT
-------------
                                X             Y             Z
Electronic contribution:     -0.44296       0.08720       0.09557
Nuclear contribution   :     -0.53373      -0.08378       0.77428
                        -----------------------------------------
Total Dipole Moment    :     -0.97670       0.00343       0.86985
                        -----------------------------------------
Magnitude (a.u.)       :      1.30789
Magnitude (Debye)      :      3.32439

Rotational constants in cm-1:     0.038486     0.015542     0.014456
Rotational constants in MHz :  1153.781072   465.952117   433.372811

                             ****ORCA TERMINATED NORMALLY****
TOTAL RUN TIME: 0 days 0 hours 1 minutes 52 seconds 544 msec
