                         Program Version 4.2.0 -  RELEASE  -
|  1> # 12h2o.su.etal.mol1,4,5,6,7,8,9,10,11
|  2> ! MP2 def2-TZVP EnGrad TightSCF
|  3>
|  4> %pal
|  5>     nprocs 6
|  6> end
|  7>
|  8> %maxcore 8000
|  9>
| 10> %scf
| 11>     ConvForced true
| 12> end
| 13>
| 14> *xyz 0 1
| 15> O  -1.794470000  -0.923410000   2.768350000
| 16> H  -2.338250000  -1.359750000   3.430940000
| 17> H  -0.879480000  -1.303000000   2.865760000
| 18> O  -0.885520000   1.737840000   0.052730000
| 19> H  -1.032320000   2.090180000  -0.841890000
| 20> H  -1.284090000   0.839590000   0.017130000
| 21> O   0.885520000  -1.737840000   0.052730000
| 22> H   1.284090000  -0.839590000   0.017130000
| 23> H   1.032320000  -2.090180000  -0.841890000
| 24> O   1.737840000   0.885520000  -0.052730000
| 25> H   2.090180000   1.032320000   0.841890000
| 26> H   0.839590000   1.284090000  -0.017130000
| 27> O  -1.737840000  -0.885520000  -0.052730000
| 28> H  -2.090180000  -1.032320000   0.841890000
| 29> H  -0.839590000  -1.284090000  -0.017130000
| 30> O   1.752130000   0.741530000  -2.896280000
| 31> H   2.036450000   0.920500000  -1.984040000
| 32> H   0.921210000   1.242140000  -2.984230000
| 33> O   0.741530000  -1.752130000   2.896280000
| 34> H   0.920500000  -2.036450000   1.984040000
| 35> H   1.242140000  -0.921210000   2.984230000
| 36> O  -0.923410000   1.794470000  -2.768350000
| 37> H  -1.359750000   2.338250000  -3.430940000
| 38> H  -1.303000000   0.879480000  -2.865760000
| 39> O  -0.741530000   1.752130000   2.896280000
| 40> H  -0.920500000   2.036450000   1.984040000
| 41> H  -1.242140000   0.921210000   2.984230000
| 42> *
| 43>
| 44>                          ****END OF INPUT****

CARTESIAN COORDINATES (ANGSTROEM)
---------------------------------
  O     -1.794470   -0.923410    2.768350
  H     -2.338250   -1.359750    3.430940
  H     -0.879480   -1.303000    2.865760
  O     -0.885520    1.737840    0.052730
  H     -1.032320    2.090180   -0.841890
  H     -1.284090    0.839590    0.017130
  O      0.885520   -1.737840    0.052730
  H      1.284090   -0.839590    0.017130
  H      1.032320   -2.090180   -0.841890
  O      1.737840    0.885520   -0.052730
  H      2.090180    1.032320    0.841890
  H      0.839590    1.284090   -0.017130
  O     -1.737840   -0.885520   -0.052730
  H     -2.090180   -1.032320    0.841890
  H     -0.839590   -1.284090   -0.017130
  O      1.752130    0.741530   -2.896280
  H      2.036450    0.920500   -1.984040
  H      0.921210    1.242140   -2.984230
  O      0.741530   -1.752130    2.896280
  H      0.920500   -2.036450    1.984040
  H      1.242140   -0.921210    2.984230
  O     -0.923410    1.794470   -2.768350
  H     -1.359750    2.338250   -3.430940
  H     -1.303000    0.879480   -2.865760
  O     -0.741530    1.752130    2.896280
  H     -0.920500    2.036450    1.984040
  H     -1.242140    0.921210    2.984230

 Total Charge           Charge          ....    0
 Multiplicity           Mult            ....    1
 Number of Electrons    NEL             ....   90
 Basis Dimension        Dim             ....  387

ORBITAL ENERGIES
----------------

  NO   OCC          E(Eh)            E(eV)
   0   2.0000     -20.616162      -560.9943
   1   2.0000     -20.591758      -560.3302
   2   2.0000     -20.586983      -560.2003
   3   2.0000     -20.586824      -560.1960
   4   2.0000     -20.565913      -559.6269
   5   2.0000     -20.560803      -559.4879
   6   2.0000     -20.549596      -559.1829
   7   2.0000     -20.524372      -558.4966
   8   2.0000     -20.512726      -558.1796
   9   2.0000      -1.396828       -38.0096
  10   2.0000      -1.389165       -37.8011
  11   2.0000      -1.377504       -37.4838
  12   2.0000      -1.369527       -37.2667
  13   2.0000      -1.355134       -36.8751
  14   2.0000      -1.349090       -36.7106
  15   2.0000      -1.331830       -36.2409
  16   2.0000      -1.309506       -35.6335
  17   2.0000      -1.297650       -35.3108
  18   2.0000      -0.762099       -20.7378
  19   2.0000      -0.749454       -20.3937
  20   2.0000      -0.740205       -20.1420
  21   2.0000      -0.734324       -19.9820
  22   2.0000      -0.732542       -19.9335
  23   2.0000      -0.723527       -19.6882
  24   2.0000      -0.712414       -19.3858
  25   2.0000      -0.689686       -18.7673
  26   2.0000      -0.675484       -18.3809
  27   2.0000      -0.652083       -17.7441
  28   2.0000      -0.637720       -17.3532
  29   2.0000      -0.620751       -16.8915
  30   2.0000      -0.610787       -16.6204
  31   2.0000      -0.606020       -16.4907
  32   2.0000      -0.594919       -16.1886
  33   2.0000      -0.576257       -15.6808
  34   2.0000      -0.562246       -15.2995
  35   2.0000      -0.540372       -14.7043
  36   2.0000      -0.538869       -14.6634
  37   2.0000      -0.529626       -14.4118
  38   2.0000      -0.528885       -14.3917
  39   2.0000      -0.524868       -14.2824
  40   2.0000      -0.511396       -13.9158
  41   2.0000      -0.507038       -13.7972
  42   2.0000      -0.496959       -13.5229
  43   2.0000      -0.474012       -12.8985
  44   2.0000      -0.462836       -12.5944
  45   0.0000       0.090706         2.4682
  46   0.0000       0.108049         2.9402
  47   0.0000       0.142264         3.8712
  48   0.0000       0.144535         3.9330
  49   0.0000       0.179782         4.8921

MULLIKEN ATOMIC CHARGES
-----------------------
   0 O :   -0.753847
   1 H :    0.350159
   2 H :    0.384988
   3 O :   -0.754495
   4 H :    0.379224
   5 H :    0.364710
   6 O :   -0.748214
   7 H :    0.370150
   8 H :    0.371518
   9 O :   -0.741324
  10 H :    0.357109
  11 H :    0.378761
  12 O :   -0.737410
  13 H :    0.380548
  14 H :    0.356915
  15 O :   -0.724065
  16 H :    0.368035
  17 H :    0.345218
  18 O :   -0.697985
  19 H :    0.391263
  20 H :    0.351601
  21 O :   -0.720741
  22 H :    0.366721
  23 H :    0.378979
  24 O :   -0.736471
  25 H :    0.368587
  26 H :    0.350065
Sum of atomic charges:   -0.0000000

LOEWDIN ATOMIC CHARGES
----------------------
   0 O :   -0.314295
   1 H :    0.159078
   2 H :    0.146881
   3 O :   -0.300054
   4 H :    0.150436
   5 H :    0.142131
   6 O :   -0.298239
   7 H :    0.145145
   8 H :    0.176667
   9 O :   -0.293364
  10 H :    0.168355
  11 H :    0.147607
  12 O :   -0.319763
  13 H :    0.150651
  14 H :    0.138153
  15 O :   -0.352616
  16 H :    0.148477
  17 H :    0.141156
  18 O :   -0.272331
  19 H :    0.159339
  20 H :    0.170859
  21 O :   -0.288544
  22 H :    0.169120
  23 H :    0.194970
  24 O :   -0.358408
  25 H :    0.147381
  26 H :    0.141206

  Mayer bond orders larger than 0.100000
B(  0-O ,  1-H ) :   0.8405 B(  0-O ,  2-H ) :   0.7412 B(  3-O ,  4-H ) :   0.8057
B(  3-O ,  5-H ) :   0.7490 B(  3-O , 11-H ) :   0.1135 B(  5-H , 12-O ) :   0.1194
B(  6-O ,  7-H ) :   0.7533 B(  6-O ,  8-H ) :   0.8266 B(  7-H ,  9-O ) :   0.1058
B(  9-O , 10-H ) :   0.8340 B(  9-O , 11-H ) :   0.7414 B( 12-O , 13-H ) :   0.7996
B( 12-O , 14-H ) :   0.7869 B( 15-O , 16-H ) :   0.8259 B( 15-O , 17-H ) :   0.8325
B( 18-O , 19-H ) :   0.7980 B( 18-O , 20-H ) :   0.8366 B( 21-O , 22-H ) :   0.8308
B( 21-O , 23-H ) :   0.8141 B( 24-O , 25-H ) :   0.8227 B( 24-O , 26-H ) :   0.8217

MP2 TOTAL ENERGY:     -686.928293469 Eh
FINAL SINGLE POINT ENERGY      -686.928293468858

DIPOLE MOMENT
-------------
                                X             Y             Z
Electronic contribution:      0.14461      -0.09779      -0.07473
Nuclear contribution   :     -0.82514      -0.42247      -0.68611
                        -----------------------------------------
Total Dipole Moment    :     -0.68052      -0.52026      -0.76084
                        -----------------------------------------
Magnitude (a.u.)       :      1.14571
Magnitude (Debye)      :      2.91217

Rotational constants in cm-1:     0.032703     0.016768     0.014860
Rotational constants in MHz :   980.397714   502.694500   445.497757

                             ****ORCA TERMINATED NORMALLY****
TOTAL RUN TIME: 0 days 0 hours 5 minutes 17 seconds 122 msec
