                         Program Version 4.2.0 -  RELEASE  -
|  1> # 12h2o.su.etal.mol0,1,3,6,7,9,10
|  2> ! MP2 def2-TZVP EnGrad TightSCF
|  3>
|  4> %pal
|  5>     nprocs 6
|  6> end
|  7>
|  8> %maxcore 8000
|  9>
| 10> %scf
| 11>     ConvForced true
| 12> end
| 13>
| 14> *xyz 0 1
| 15> O   1.794470000   0.923410000   2.768350000
| 16> H   2.338250000   1.359750000   3.430940000
| 17> H   0.879480000   1.303000000   2.865760000
| 18> O  -1.794470000  -0.923410000   2.768350000
| 19> H  -2.338250000  -1.359750000   3.430940000
| 20> H  -0.879480000  -1.303000000   2.865760000
| 21> O  -1.752130000  -0.741530000  -2.896280000
| 22> H  -2.036450000  -0.920500000  -1.984040000
| 23> H  -0.921210000  -1.242140000  -2.984230000
| 24> O   1.737840000   0.885520000  -0.052730000
| 25> H   2.090180000   1.032320000   0.841890000
| 26> H   0.839590000   1.284090000  -0.017130000
| 27> O  -1.737840000  -0.885520000  -0.052730000
| 28> H  -2.090180000  -1.032320000   0.841890000
| 29> H  -0.839590000  -1.284090000  -0.017130000
| 30> O   0.741530000  -1.752130000   2.896280000
| 31> H   0.920500000  -2.036450000   1.984040000
| 32> H   1.242140000  -0.921210000   2.984230000
| 33> O  -0.923410000   1.794470000  -2.768350000
| 34> H  -1.359750000   2.338250000  -3.430940000
| 35> H  -1.303000000   0.879480000  -2.865760000
| 36> *
| 37>
| 38>                          ****END OF INPUT****

CARTESIAN COORDINATES (ANGSTROEM)
---------------------------------
  O      1.794470    0.923410    2.768350
  H      2.338250    1.359750    3.430940
  H      0.879480    1.303000    2.865760
  O     -1.794470   -0.923410    2.768350
  H     -2.338250   -1.359750    3.430940
  H     -0.879480   -1.303000    2.865760
  O     -1.752130   -0.741530   -2.896280
  H     -2.036450   -0.920500   -1.984040
  H     -0.921210   -1.242140   -2.984230
  O      1.737840    0.885520   -0.052730
  H      2.090180    1.032320    0.841890
  H      0.839590    1.284090   -0.017130
  O     -1.737840   -0.885520   -0.052730
  H     -2.090180   -1.032320    0.841890
  H     -0.839590   -1.284090   -0.017130
  O      0.741530   -1.752130    2.896280
  H      0.920500   -2.036450    1.984040
  H      1.242140   -0.921210    2.984230
  O     -0.923410    1.794470   -2.768350
  H     -1.359750    2.338250   -3.430940
  H     -1.303000    0.879480   -2.865760

 Total Charge           Charge          ....    0
 Multiplicity           Mult            ....    1
 Number of Electrons    NEL             ....   70
 Basis Dimension        Dim             ....  301

ORBITAL ENERGIES
----------------

  NO   OCC          E(Eh)            E(eV)
   0   2.0000     -20.626340      -561.2712
   1   2.0000     -20.593120      -560.3673
   2   2.0000     -20.558983      -559.4384
   3   2.0000     -20.557360      -559.3942
   4   2.0000     -20.555242      -559.3366
   5   2.0000     -20.536863      -558.8365
   6   2.0000     -20.497334      -557.7608
   7   2.0000      -1.407135       -38.2901
   8   2.0000      -1.381920       -37.6040
   9   2.0000      -1.349109       -36.7111
  10   2.0000      -1.342202       -36.5232
  11   2.0000      -1.333041       -36.2739
  12   2.0000      -1.315961       -35.8091
  13   2.0000      -1.279312       -34.8118
  14   2.0000      -0.772892       -21.0315
  15   2.0000      -0.743119       -20.2213
  16   2.0000      -0.725503       -19.7419
  17   2.0000      -0.713690       -19.4205
  18   2.0000      -0.698379       -19.0039
  19   2.0000      -0.689389       -18.7592
  20   2.0000      -0.667298       -18.1581
  21   2.0000      -0.646221       -17.5846
  22   2.0000      -0.623035       -16.9536
  23   2.0000      -0.601333       -16.3631
  24   2.0000      -0.587514       -15.9871
  25   2.0000      -0.575407       -15.6576
  26   2.0000      -0.565690       -15.3932
  27   2.0000      -0.543231       -14.7821
  28   2.0000      -0.530171       -14.4267
  29   2.0000      -0.528151       -14.3717
  30   2.0000      -0.506992       -13.7960
  31   2.0000      -0.504859       -13.7379
  32   2.0000      -0.484289       -13.1782
  33   2.0000      -0.482036       -13.1169
  34   2.0000      -0.447760       -12.1842
  35   0.0000       0.081614         2.2208
  36   0.0000       0.113971         3.1013
  37   0.0000       0.145561         3.9609
  38   0.0000       0.151798         4.1306
  39   0.0000       0.166974         4.5436

MULLIKEN ATOMIC CHARGES
-----------------------
   0 O :   -0.722307
   1 H :    0.368874
   2 H :    0.377065
   3 O :   -0.742313
   4 H :    0.340844
   5 H :    0.368176
   6 O :   -0.695830
   7 H :    0.386827
   8 H :    0.341382
   9 O :   -0.701667
  10 H :    0.354275
  11 H :    0.343921
  12 O :   -0.710248
  13 H :    0.380779
  14 H :    0.319999
  15 O :   -0.697141
  16 H :    0.352961
  17 H :    0.379651
  18 O :   -0.732645
  19 H :    0.317254
  20 H :    0.370144
Sum of atomic charges:   -0.0000000

LOEWDIN ATOMIC CHARGES
----------------------
   0 O :   -0.287843
   1 H :    0.170268
   2 H :    0.194357
   3 O :   -0.343009
   4 H :    0.155605
   5 H :    0.141960
   6 O :   -0.279342
   7 H :    0.158799
   8 H :    0.168007
   9 O :   -0.345481
  10 H :    0.143215
  11 H :    0.170709
  12 O :   -0.324634
  13 H :    0.155291
  14 H :    0.160248
  15 O :   -0.277368
  16 H :    0.169339
  17 H :    0.155078
  18 O :   -0.373478
  19 H :    0.145180
  20 H :    0.143098

  Mayer bond orders larger than 0.100000
B(  0-O ,  1-H ) :   0.8288 B(  0-O ,  2-H ) :   0.8146 B(  3-O ,  4-H ) :   0.8485
B(  3-O ,  5-H ) :   0.7590 B(  5-H , 15-O ) :   0.1002 B(  6-O ,  7-H ) :   0.7968
B(  6-O ,  8-H ) :   0.8471 B(  9-O , 10-H ) :   0.8321 B(  9-O , 11-H ) :   0.8404
B( 12-O , 13-H ) :   0.7957 B( 12-O , 14-H ) :   0.8508 B( 15-O , 16-H ) :   0.8392
B( 15-O , 17-H ) :   0.7978 B( 18-O , 19-H ) :   0.8644 B( 18-O , 20-H ) :   0.7783

MP2 TOTAL ENERGY:     -534.242837091 Eh
FINAL SINGLE POINT ENERGY      -534.242837090838

DIPOLE MOMENT
-------------
                                X             Y             Z
Electronic contribution:      0.22191      -0.08973       0.24251
Nuclear contribution   :      0.34148      -0.41967       2.18115
                        -----------------------------------------
Total Dipole Moment    :      0.56339      -0.50939       2.42366
                        -----------------------------------------
Magnitude (a.u.)       :      2.53988
Magnitude (Debye)      :      6.45587

Rotational constants in cm-1:     0.043008     0.019523     0.015091
Rotational constants in MHz :  1289.346853   585.277551   452.430563

                             ****ORCA TERMINATED NORMALLY****
TOTAL RUN TIME: 0 days 0 hours 1 minutes 44 seconds 431 msec
