                         Program Version 4.2.0 -  RELEASE  -
|  1> # 12h2o.su.etal.mol0,3,10,11
|  2> ! MP2 def2-TZVP EnGrad TightSCF
|  3>
|  4> %pal
|  5>     nprocs 6
|  6> end
|  7>
|  8> %maxcore 8000
|  9>
| 10> %scf
| 11>     ConvForced true
| 12> end
| 13>
| 14> *xyz 0 1
| 15> O   1.794470000   0.923410000   2.768350000
| 16> H   2.338250000   1.359750000   3.430940000
| 17> H   0.879480000   1.303000000   2.865760000
| 18> O  -1.752130000  -0.741530000  -2.896280000
| 19> H  -2.036450000  -0.920500000  -1.984040000
| 20> H  -0.921210000  -1.242140000  -2.984230000
| 21> O  -0.923410000   1.794470000  -2.768350000
| 22> H  -1.359750000   2.338250000  -3.430940000
| 23> H  -1.303000000   0.879480000  -2.865760000
| 24> O  -0.741530000   1.752130000   2.896280000
| 25> H  -0.920500000   2.036450000   1.984040000
| 26> H  -1.242140000   0.921210000   2.984230000
| 27> *
| 28>
| 29>                          ****END OF INPUT****

CARTESIAN COORDINATES (ANGSTROEM)
---------------------------------
  O      1.794470    0.923410    2.768350
  H      2.338250    1.359750    3.430940
  H      0.879480    1.303000    2.865760
  O     -1.752130   -0.741530   -2.896280
  H     -2.036450   -0.920500   -1.984040
  H     -0.921210   -1.242140   -2.984230
  O     -0.923410    1.794470   -2.768350
  H     -1.359750    2.338250   -3.430940
  H     -1.303000    0.879480   -2.865760
  O     -0.741530    1.752130    2.896280
  H     -0.920500    2.036450    1.984040
  H     -1.242140    0.921210    2.984230

 Total Charge           Charge          ....    0
 Multiplicity           Mult            ....    1
 Number of Electrons    NEL             ....   40
 Basis Dimension        Dim             ....  172

ORBITAL ENERGIES
----------------

  NO   OCC          E(Eh)            E(eV)
   0   2.0000     -20.603084      -560.6384
   1   2.0000     -20.596361      -560.4555
   2   2.0000     -20.521938      -558.4303
   3   2.0000     -20.514672      -558.2326
   4   2.0000      -1.388347       -37.7788
   5   2.0000      -1.381657       -37.5968
   6   2.0000      -1.304349       -35.4931
   7   2.0000      -1.297124       -35.2965
   8   2.0000      -0.745923       -20.2976
   9   2.0000      -0.739090       -20.1117
  10   2.0000      -0.695690       -18.9307
  11   2.0000      -0.688587       -18.7374
  12   2.0000      -0.622841       -16.9484
  13   2.0000      -0.616126       -16.7656
  14   2.0000      -0.562874       -15.3166
  15   2.0000      -0.555988       -15.1292
  16   2.0000      -0.519142       -14.1266
  17   2.0000      -0.512210       -13.9379
  18   2.0000      -0.472302       -12.8520
  19   2.0000      -0.464968       -12.6524
  20   0.0000       0.101273         2.7558
  21   0.0000       0.116386         3.1670
  22   0.0000       0.171112         4.6562
  23   0.0000       0.176291         4.7971
  24   0.0000       0.180506         4.9118

MULLIKEN ATOMIC CHARGES
-----------------------
   0 O :   -0.730638
   1 H :    0.324764
   2 H :    0.363504
   3 O :   -0.676082
   4 H :    0.355957
   5 H :    0.363014
   6 O :   -0.731255
   7 H :    0.326128
   8 H :    0.362459
   9 O :   -0.678329
  10 H :    0.364542
  11 H :    0.355937
Sum of atomic charges:    0.0000000

LOEWDIN ATOMIC CHARGES
----------------------
   0 O :   -0.371799
   1 H :    0.148310
   2 H :    0.141369
   3 O :   -0.270267
   4 H :    0.174015
   5 H :    0.178580
   6 O :   -0.372111
   7 H :    0.148896
   8 H :    0.141018
   9 O :   -0.270845
  10 H :    0.177545
  11 H :    0.175290

  Mayer bond orders larger than 0.100000
B(  0-O ,  1-H ) :   0.8611 B(  0-O ,  2-H ) :   0.7907 B(  3-O ,  4-H ) :   0.8387
B(  3-O ,  5-H ) :   0.8339 B(  6-O ,  7-H ) :   0.8602 B(  6-O ,  8-H ) :   0.7906
B(  9-O , 10-H ) :   0.8331 B(  9-O , 11-H ) :   0.8382

MP2 TOTAL ENERGY:     -305.265485816 Eh
FINAL SINGLE POINT ENERGY      -305.265485815613

DIPOLE MOMENT
-------------
                                X             Y             Z
Electronic contribution:     -0.20063      -0.11270      -0.02718
Nuclear contribution   :     -1.09882      -0.65046       0.00000
                        -----------------------------------------
Total Dipole Moment    :     -1.29945      -0.76316      -0.02718
                        -----------------------------------------
Magnitude (a.u.)       :      1.50722
Magnitude (Debye)      :      3.83105

Rotational constants in cm-1:     0.135288     0.023407     0.023151
Rotational constants in MHz :  4055.838593   701.729767   694.055567

                             ****ORCA TERMINATED NORMALLY****
TOTAL RUN TIME: 0 days 0 hours 0 minutes 14 seconds 671 msec
