                         Program Version 4.2.0 -  RELEASE  -
|  1> ! MP2 def2-TZVP EnGrad TightSCF FrozenCore
|  2>
|  3> %pal
|  4>     nprocs 12
|  5> end
|  6>
|  7> %maxcore 8000
|  8>
|  9> %scf
| 10>     ConvForced true
| 11> end
| 12>
| 13> *xyz 0 1
| 14> C     0.096723     3.229666    -0.009988
| 15> H     0.959394     2.860096    -0.572160
| 16> H     0.404822     3.410363     1.022512
| 17> H    -0.271396     4.155261    -0.459959
| 18> C    -0.949629     2.212196    -0.035740
| 19> N    -1.782770     1.401749    -0.059023
| 20> C    -0.110993    -1.133240     1.877368
| 21> H     0.411720    -1.982743     1.427660
| 22> H    -1.019386    -0.923439     1.304202
| 23> H    -0.388182    -1.384363     2.904486
| 24> C     0.763927     0.035185     1.867591
| 25> N     1.456947     0.968696     1.859508
| 26> C    -0.094067    -1.258148    -1.769493
| 27> H    -1.022059    -0.979020    -1.261718
| 28> H     0.398115    -2.058102    -1.207793
| 29> H    -0.330657    -1.618888    -2.773857
| 30> C     0.797034    -0.104795    -1.849717
| 31> N     1.510071     0.811361    -1.913047
| 32> C    -4.669338     0.011362    -0.065280
| 33> H    -5.708191    -0.327650    -0.079508
| 34> H    -4.454950     0.590717    -0.966263
| 35> H    -4.502037     0.659827     0.797808
| 36> C    -3.766793    -1.134553     0.003581
| 37> N    -3.052441    -2.049299     0.058045
| 38> C     4.117689     0.005902    -0.077951
| 39> H     3.613985     0.806608     0.471696
| 40> H     4.201406     0.301409    -1.126571
| 41> H     5.112148    -0.163593     0.342606
| 42> C     3.315382    -1.209636     0.025150
| 43> N     2.667571    -2.171094     0.109337
| 44> *
| 45>
| 46>                          ****END OF INPUT****

CARTESIAN COORDINATES (ANGSTROEM)
---------------------------------
  C      0.096723    3.229666   -0.009988
  H      0.959394    2.860096   -0.572160
  H      0.404822    3.410363    1.022512
  H     -0.271396    4.155261   -0.459959
  C     -0.949629    2.212196   -0.035740
  N     -1.782770    1.401749   -0.059023
  C     -0.110993   -1.133240    1.877368
  H      0.411720   -1.982743    1.427660
  H     -1.019386   -0.923439    1.304202
  H     -0.388182   -1.384363    2.904486
  C      0.763927    0.035185    1.867591
  N      1.456947    0.968696    1.859508
  C     -0.094067   -1.258148   -1.769493
  H     -1.022059   -0.979020   -1.261718
  H      0.398115   -2.058102   -1.207793
  H     -0.330657   -1.618888   -2.773857
  C      0.797034   -0.104795   -1.849717
  N      1.510071    0.811361   -1.913047
  C     -4.669338    0.011362   -0.065280
  H     -5.708191   -0.327650   -0.079508
  H     -4.454950    0.590717   -0.966263
  H     -4.502037    0.659827    0.797808
  C     -3.766793   -1.134553    0.003581
  N     -3.052441   -2.049299    0.058045
  C      4.117689    0.005902   -0.077951
  H      3.613985    0.806608    0.471696
  H      4.201406    0.301409   -1.126571
  H      5.112148   -0.163593    0.342606
  C      3.315382   -1.209636    0.025150
  N      2.667571   -2.171094    0.109337

 Total Charge           Charge          ....    0
 Multiplicity           Mult            ....    1
 Number of Electrons    NEL             ....  110
 Basis Dimension        Dim             ....  555

ORBITAL ENERGIES
----------------

  NO   OCC          E(Eh)            E(eV)
   0   2.0000     -15.570258      -423.6883
   1   2.0000     -15.569616      -423.6708
   2   2.0000     -15.562540      -423.4782
   3   2.0000     -15.562371      -423.4736
   4   2.0000     -15.561636      -423.4536
   5   2.0000     -11.286496      -307.1212
   6   2.0000     -11.282945      -307.0246
   7   2.0000     -11.277231      -306.8691
   8   2.0000     -11.277147      -306.8668
   9   2.0000     -11.276418      -306.8469
  10   2.0000     -11.276354      -306.8452
  11   2.0000     -11.265576      -306.5519
  12   2.0000     -11.261579      -306.4431
  13   2.0000     -11.258764      -306.3666
  14   2.0000     -11.258643      -306.3633
  15   2.0000      -1.221061       -33.2268
  16   2.0000      -1.218234       -33.1498
  17   2.0000      -1.214084       -33.0369
  18   2.0000      -1.211436       -32.9648
  19   2.0000      -1.209027       -32.8993
  20   2.0000      -1.033105       -28.1122
  21   2.0000      -1.026764       -27.9397
  22   2.0000      -1.022570       -27.8256
  23   2.0000      -1.019522       -27.7426
  24   2.0000      -1.017431       -27.6857
  25   2.0000      -0.692784       -18.8516
  26   2.0000      -0.688038       -18.7225
  27   2.0000      -0.682953       -18.5841
  28   2.0000      -0.678394       -18.4600
  29   2.0000      -0.678179       -18.4542
  30   2.0000      -0.629029       -17.1167
  31   2.0000      -0.623926       -16.9779
  32   2.0000      -0.621500       -16.9119
  33   2.0000      -0.620089       -16.8735
  34   2.0000      -0.616166       -16.7667
  35   2.0000      -0.612269       -16.6607
  36   2.0000      -0.610642       -16.6164
  37   2.0000      -0.604091       -16.4382
  38   2.0000      -0.598098       -16.2751
  39   2.0000      -0.597639       -16.2626
  40   2.0000      -0.560723       -15.2580
  41   2.0000      -0.558460       -15.1965
  42   2.0000      -0.552185       -15.0257
  43   2.0000      -0.551491       -15.0068
  44   2.0000      -0.549212       -14.9448
  45   2.0000      -0.466885       -12.7046
  46   2.0000      -0.465535       -12.6678
  47   2.0000      -0.462978       -12.5983
  48   2.0000      -0.461058       -12.5460
  49   2.0000      -0.460588       -12.5332
  50   2.0000      -0.454374       -12.3641
  51   2.0000      -0.451760       -12.2930
  52   2.0000      -0.448893       -12.2150
  53   2.0000      -0.448475       -12.2036
  54   2.0000      -0.446199       -12.1417
  55   0.0000       0.123782         3.3683
  56   0.0000       0.142337         3.8732
  57   0.0000       0.153642         4.1808
  58   0.0000       0.158344         4.3088
  59   0.0000       0.163839         4.4583

MULLIKEN ATOMIC CHARGES
-----------------------
   0 C :   -0.271481
   1 H :    0.199514
   2 H :    0.180405
   3 H :    0.166020
   4 C :   -0.084404
   5 N :   -0.189847
   6 C :   -0.283127
   7 H :    0.195123
   8 H :    0.177986
   9 H :    0.171032
  10 C :   -0.084450
  11 N :   -0.178683
  12 C :   -0.279772
  13 H :    0.177014
  14 H :    0.193183
  15 H :    0.171087
  16 C :   -0.085749
  17 N :   -0.178096
  18 C :   -0.258137
  19 H :    0.172596
  20 H :    0.172171
  21 H :    0.171296
  22 C :   -0.108395
  23 N :   -0.142928
  24 C :   -0.275561
  25 H :    0.194223
  26 H :    0.177698
  27 H :    0.166979
  28 C :   -0.098595
  29 N :   -0.167103
Sum of atomic charges:   -0.0000000

LOEWDIN ATOMIC CHARGES
----------------------
   0 C :   -0.281000
   1 H :    0.157196
   2 H :    0.154010
   3 H :    0.146919
   4 C :   -0.194441
   5 N :    0.030868
   6 C :   -0.280171
   7 H :    0.155104
   8 H :    0.152293
   9 H :    0.150223
  10 C :   -0.200532
  11 N :    0.028747
  12 C :   -0.279994
  13 H :    0.152082
  14 H :    0.155205
  15 H :    0.150275
  16 C :   -0.200618
  17 N :    0.028294
  18 C :   -0.287418
  19 H :    0.146776
  20 H :    0.152918
  21 H :    0.152840
  22 C :   -0.212867
  23 N :    0.029276
  24 C :   -0.284007
  25 H :    0.155662
  26 H :    0.152998
  27 H :    0.146907
  28 C :   -0.201885
  29 N :    0.024340

  Mayer bond orders larger than 0.100000
B(  0-C ,  1-H ) :   0.9032 B(  0-C ,  2-H ) :   0.9119 B(  0-C ,  3-H ) :   0.9109
B(  0-C ,  4-C ) :   0.9020 B(  4-C ,  5-N ) :   2.7281 B(  6-C ,  7-H ) :   0.9123
B(  6-C ,  8-H ) :   0.9067 B(  6-C ,  9-H ) :   0.9087 B(  6-C , 10-C ) :   0.8929
B( 10-C , 11-N ) :   2.7284 B( 12-C , 13-H ) :   0.9079 B( 12-C , 14-H ) :   0.9115
B( 12-C , 15-H ) :   0.9085 B( 12-C , 16-C ) :   0.8943 B( 16-C , 17-N ) :   2.7286
B( 18-C , 19-H ) :   0.9096 B( 18-C , 20-H ) :   0.9178 B( 18-C , 21-H ) :   0.9180
B( 18-C , 22-C ) :   0.9027 B( 22-C , 23-N ) :   2.7670 B( 24-C , 25-H ) :   0.9056
B( 24-C , 26-H ) :   0.9122 B( 24-C , 27-H ) :   0.9113 B( 24-C , 28-C ) :   0.9054
B( 28-C , 29-N ) :   2.7461

MP2 TOTAL ENERGY:     -662.460136345 Eh
FINAL SINGLE POINT ENERGY      -662.460136345283

DIPOLE MOMENT
-------------
                                X             Y             Z
Electronic contribution:      1.75526      -2.22176       0.11951
Nuclear contribution   :     -2.60727       3.36192      -0.17768
                        -----------------------------------------
Total Dipole Moment    :     -0.85201       1.14016      -0.05816
                        -----------------------------------------
Magnitude (a.u.)       :      1.42453
Magnitude (Debye)      :      3.62086

Rotational constants in cm-1:     0.021865     0.010837     0.009663
Rotational constants in MHz :   655.509094   324.887356   289.677005

                             ****ORCA TERMINATED NORMALLY****
TOTAL RUN TIME: 0 days 0 hours 27 minutes 1 seconds 41 msec
