                         Program Version 4.2.0 -  RELEASE  -
|  1> # 12mecn.remya.etal.2.mol0,10,11
|  2> ! MP2 def2-TZVP EnGrad TightSCF
|  3>
|  4> %pal
|  5>     nprocs 6
|  6> end
|  7>
|  8> %maxcore 8000
|  9>
| 10> %scf
| 11>     ConvForced true
| 12> end
| 13>
| 14> *xyz 0 1
| 15> C  -0.869520000  -3.929380000   1.700199000
| 16> H  -0.057420000  -3.268850000   2.015352000
| 17> H  -0.697530000  -4.930670000   2.101524000
| 18> H  -1.821490000  -3.546590000   2.077146000
| 19> C  -0.916080000  -3.969960000   0.256749000
| 20> N  -0.955390000  -3.995980000  -0.909290000
| 21> C   4.602033000   0.321019000  -1.784800000
| 22> H   4.827650000  -0.662160000  -2.207910000
| 23> H   5.320558000   1.057980000  -2.148500000
| 24> H   3.601982000   0.643751000  -2.087520000
| 25> C   4.654967000   0.244048000  -0.343060000
| 26> N   4.691648000   0.166590000   0.820757000
| 27> C   4.214163000   3.378139000   1.593627000
| 28> H   3.242643000   3.657109000   2.012358000
| 29> H   4.969258000   4.086643000   1.941290000
| 30> H   4.482966000   2.372549000   1.931698000
| 31> C   4.130759000   3.388436000   0.150192000
| 32> N   4.050180000   3.381449000  -1.013420000
| 33> *
| 34>
| 35>                          ****END OF INPUT****

CARTESIAN COORDINATES (ANGSTROEM)
---------------------------------
  C     -0.869520   -3.929380    1.700199
  H     -0.057420   -3.268850    2.015352
  H     -0.697530   -4.930670    2.101524
  H     -1.821490   -3.546590    2.077146
  C     -0.916080   -3.969960    0.256749
  N     -0.955390   -3.995980   -0.909290
  C      4.602033    0.321019   -1.784800
  H      4.827650   -0.662160   -2.207910
  H      5.320558    1.057980   -2.148500
  H      3.601982    0.643751   -2.087520
  C      4.654967    0.244048   -0.343060
  N      4.691648    0.166590    0.820757
  C      4.214163    3.378139    1.593627
  H      3.242643    3.657109    2.012358
  H      4.969258    4.086643    1.941290
  H      4.482966    2.372549    1.931698
  C      4.130759    3.388436    0.150192
  N      4.050180    3.381449   -1.013420

 Total Charge           Charge          ....    0
 Multiplicity           Mult            ....    1
 Number of Electrons    NEL             ....   66
 Basis Dimension        Dim             ....  333

ORBITAL ENERGIES
----------------

  NO   OCC          E(Eh)            E(eV)
   0   2.0000     -15.572600      -423.7520
   1   2.0000     -15.571631      -423.7256
   2   2.0000     -15.570581      -423.6970
   3   2.0000     -11.283785      -307.0474
   4   2.0000     -11.283276      -307.0335
   5   2.0000     -11.283074      -307.0281
   6   2.0000     -11.279763      -306.9380
   7   2.0000     -11.272788      -306.7482
   8   2.0000     -11.271166      -306.7040
   9   2.0000      -1.218687       -33.1622
  10   2.0000      -1.213937       -33.0329
  11   2.0000      -1.213841       -33.0303
  12   2.0000      -1.043309       -28.3899
  13   2.0000      -1.036531       -28.2055
  14   2.0000      -1.033203       -28.1149
  15   2.0000      -0.699236       -19.0272
  16   2.0000      -0.695260       -18.9190
  17   2.0000      -0.690274       -18.7833
  18   2.0000      -0.631495       -17.1838
  19   2.0000      -0.631487       -17.1836
  20   2.0000      -0.630753       -17.1637
  21   2.0000      -0.623206       -16.9583
  22   2.0000      -0.617421       -16.8009
  23   2.0000      -0.615728       -16.7548
  24   2.0000      -0.559385       -15.2217
  25   2.0000      -0.556314       -15.1381
  26   2.0000      -0.555485       -15.1155
  27   2.0000      -0.462809       -12.5937
  28   2.0000      -0.459077       -12.4921
  29   2.0000      -0.457382       -12.4460
  30   2.0000      -0.457069       -12.4375
  31   2.0000      -0.456974       -12.4349
  32   2.0000      -0.453548       -12.3417
  33   0.0000       0.119871         3.2619
  34   0.0000       0.126712         3.4480
  35   0.0000       0.145980         3.9723
  36   0.0000       0.171917         4.6781
  37   0.0000       0.172027         4.6811

MULLIKEN ATOMIC CHARGES
-----------------------
   0 C :   -0.279513
   1 H :    0.175574
   2 H :    0.171905
   3 H :    0.171272
   4 C :   -0.145482
   5 N :   -0.093765
   6 C :   -0.256719
   7 H :    0.172994
   8 H :    0.178795
   9 H :    0.177974
  10 C :   -0.118535
  11 N :   -0.153621
  12 C :   -0.288389
  13 H :    0.165771
  14 H :    0.166717
  15 H :    0.204884
  16 C :   -0.113242
  17 N :   -0.136623
Sum of atomic charges:    0.0000000

LOEWDIN ATOMIC CHARGES
----------------------
   0 C :   -0.283381
   1 H :    0.153830
   2 H :    0.151677
   3 H :    0.152721
   4 C :   -0.219425
   5 N :    0.044574
   6 C :   -0.283525
   7 H :    0.150840
   8 H :    0.155602
   9 H :    0.158043
  10 C :   -0.209290
  11 N :    0.025423
  12 C :   -0.283034
  13 H :    0.152336
  14 H :    0.150003
  15 H :    0.156990
  16 C :   -0.209585
  17 N :    0.036199

  Mayer bond orders larger than 0.100000
B(  0-C ,  1-H ) :   0.9156 B(  0-C ,  2-H ) :   0.9165 B(  0-C ,  3-H ) :   0.9165
B(  0-C ,  4-C ) :   0.9016 B(  4-C ,  5-N ) :   2.8380 B(  6-C ,  7-H ) :   0.9086
B(  6-C ,  8-H ) :   0.9123 B(  6-C ,  9-H ) :   0.9119 B(  6-C , 10-C ) :   0.9127
B( 10-C , 11-N ) :   2.7748 B( 12-C , 13-H ) :   0.9151 B( 12-C , 14-H ) :   0.9163
B( 12-C , 15-H ) :   0.9020 B( 12-C , 16-C ) :   0.9003 B( 16-C , 17-N ) :   2.7906

MP2 TOTAL ENERGY:     -397.459655004 Eh
FINAL SINGLE POINT ENERGY      -397.459655004138

DIPOLE MOMENT
-------------
                                X             Y             Z
Electronic contribution:     -0.14756      -0.25907      -3.15330
Nuclear contribution   :      0.24169       0.38404       4.65328
                        -----------------------------------------
Total Dipole Moment    :      0.09413       0.12497       1.49998
                        -----------------------------------------
Magnitude (a.u.)       :      1.50812
Magnitude (Debye)      :      3.83332

Rotational constants in cm-1:     0.055656     0.008960     0.008537
Rotational constants in MHz :  1668.526765   268.627976   255.919637

                             ****ORCA TERMINATED NORMALLY****
TOTAL RUN TIME: 0 days 0 hours 2 minutes 45 seconds 445 msec
