                         Program Version 4.2.0 -  RELEASE  -
|  1> # 12h2o.su.etal.mol0,1,2,3,5,8,9,10,11
|  2> ! MP2 def2-TZVP EnGrad TightSCF
|  3>
|  4> %pal
|  5>     nprocs 6
|  6> end
|  7>
|  8> %maxcore 8000
|  9>
| 10> %scf
| 11>     ConvForced true
| 12> end
| 13>
| 14> *xyz 0 1
| 15> O   1.794470000   0.923410000   2.768350000
| 16> H   2.338250000   1.359750000   3.430940000
| 17> H   0.879480000   1.303000000   2.865760000
| 18> O  -1.794470000  -0.923410000   2.768350000
| 19> H  -2.338250000  -1.359750000   3.430940000
| 20> H  -0.879480000  -1.303000000   2.865760000
| 21> O   0.923410000  -1.794470000  -2.768350000
| 22> H   1.359750000  -2.338250000  -3.430940000
| 23> H   1.303000000  -0.879480000  -2.865760000
| 24> O  -1.752130000  -0.741530000  -2.896280000
| 25> H  -2.036450000  -0.920500000  -1.984040000
| 26> H  -0.921210000  -1.242140000  -2.984230000
| 27> O   0.885520000  -1.737840000   0.052730000
| 28> H   1.284090000  -0.839590000   0.017130000
| 29> H   1.032320000  -2.090180000  -0.841890000
| 30> O   1.752130000   0.741530000  -2.896280000
| 31> H   2.036450000   0.920500000  -1.984040000
| 32> H   0.921210000   1.242140000  -2.984230000
| 33> O   0.741530000  -1.752130000   2.896280000
| 34> H   0.920500000  -2.036450000   1.984040000
| 35> H   1.242140000  -0.921210000   2.984230000
| 36> O  -0.923410000   1.794470000  -2.768350000
| 37> H  -1.359750000   2.338250000  -3.430940000
| 38> H  -1.303000000   0.879480000  -2.865760000
| 39> O  -0.741530000   1.752130000   2.896280000
| 40> H  -0.920500000   2.036450000   1.984040000
| 41> H  -1.242140000   0.921210000   2.984230000
| 42> *
| 43>
| 44>                          ****END OF INPUT****

CARTESIAN COORDINATES (ANGSTROEM)
---------------------------------
  O      1.794470    0.923410    2.768350
  H      2.338250    1.359750    3.430940
  H      0.879480    1.303000    2.865760
  O     -1.794470   -0.923410    2.768350
  H     -2.338250   -1.359750    3.430940
  H     -0.879480   -1.303000    2.865760
  O      0.923410   -1.794470   -2.768350
  H      1.359750   -2.338250   -3.430940
  H      1.303000   -0.879480   -2.865760
  O     -1.752130   -0.741530   -2.896280
  H     -2.036450   -0.920500   -1.984040
  H     -0.921210   -1.242140   -2.984230
  O      0.885520   -1.737840    0.052730
  H      1.284090   -0.839590    0.017130
  H      1.032320   -2.090180   -0.841890
  O      1.752130    0.741530   -2.896280
  H      2.036450    0.920500   -1.984040
  H      0.921210    1.242140   -2.984230
  O      0.741530   -1.752130    2.896280
  H      0.920500   -2.036450    1.984040
  H      1.242140   -0.921210    2.984230
  O     -0.923410    1.794470   -2.768350
  H     -1.359750    2.338250   -3.430940
  H     -1.303000    0.879480   -2.865760
  O     -0.741530    1.752130    2.896280
  H     -0.920500    2.036450    1.984040
  H     -1.242140    0.921210    2.984230

 Total Charge           Charge          ....    0
 Multiplicity           Mult            ....    1
 Number of Electrons    NEL             ....   90
 Basis Dimension        Dim             ....  387

ORBITAL ENERGIES
----------------

  NO   OCC          E(Eh)            E(eV)
   0   2.0000     -20.587214      -560.2066
   1   2.0000     -20.580425      -560.0218
   2   2.0000     -20.576040      -559.9025
   3   2.0000     -20.564784      -559.5962
   4   2.0000     -20.562541      -559.5352
   5   2.0000     -20.556555      -559.3723
   6   2.0000     -20.546055      -559.0866
   7   2.0000     -20.535870      -558.8094
   8   2.0000     -20.534954      -558.7845
   9   2.0000      -1.383589       -37.6494
  10   2.0000      -1.367479       -37.2110
  11   2.0000      -1.361185       -37.0397
  12   2.0000      -1.357519       -36.9400
  13   2.0000      -1.344387       -36.5826
  14   2.0000      -1.336613       -36.3711
  15   2.0000      -1.332634       -36.2628
  16   2.0000      -1.327082       -36.1117
  17   2.0000      -1.311030       -35.6749
  18   2.0000      -0.747080       -20.3291
  19   2.0000      -0.738976       -20.1085
  20   2.0000      -0.725543       -19.7430
  21   2.0000      -0.719250       -19.5718
  22   2.0000      -0.716847       -19.5064
  23   2.0000      -0.714532       -19.4434
  24   2.0000      -0.712305       -19.3828
  25   2.0000      -0.696913       -18.9640
  26   2.0000      -0.690063       -18.7776
  27   2.0000      -0.641054       -17.4440
  28   2.0000      -0.614943       -16.7334
  29   2.0000      -0.609205       -16.5773
  30   2.0000      -0.604513       -16.4496
  31   2.0000      -0.592282       -16.1168
  32   2.0000      -0.575218       -15.6525
  33   2.0000      -0.573224       -15.5982
  34   2.0000      -0.566759       -15.4223
  35   2.0000      -0.541931       -14.7467
  36   2.0000      -0.530044       -14.4232
  37   2.0000      -0.526007       -14.3134
  38   2.0000      -0.516607       -14.0576
  39   2.0000      -0.508705       -13.8426
  40   2.0000      -0.507157       -13.8004
  41   2.0000      -0.505618       -13.7586
  42   2.0000      -0.495219       -13.4756
  43   2.0000      -0.485678       -13.2160
  44   2.0000      -0.481147       -13.0927
  45   0.0000       0.091124         2.4796
  46   0.0000       0.131351         3.5742
  47   0.0000       0.142340         3.8733
  48   0.0000       0.144862         3.9419
  49   0.0000       0.162861         4.4317

MULLIKEN ATOMIC CHARGES
-----------------------
   0 O :   -0.747708
   1 H :    0.341221
   2 H :    0.378995
   3 O :   -0.747273
   4 H :    0.336587
   5 H :    0.384760
   6 O :   -0.758209
   7 H :    0.355262
   8 H :    0.382432
   9 O :   -0.710422
  10 H :    0.363604
  11 H :    0.377979
  12 O :   -0.713078
  13 H :    0.329631
  14 H :    0.376226
  15 O :   -0.705512
  16 H :    0.350889
  17 H :    0.383512
  18 O :   -0.727957
  19 H :    0.384981
  20 H :    0.364107
  21 O :   -0.746635
  22 H :    0.344650
  23 H :    0.380323
  24 O :   -0.709850
  25 H :    0.352419
  26 H :    0.379067
Sum of atomic charges:    0.0000000

LOEWDIN ATOMIC CHARGES
----------------------
   0 O :   -0.345025
   1 H :    0.155550
   2 H :    0.144792
   3 O :   -0.343634
   4 H :    0.153327
   5 H :    0.145993
   6 O :   -0.315025
   7 H :    0.161437
   8 H :    0.145553
   9 O :   -0.282411
  10 H :    0.175290
  11 H :    0.153451
  12 O :   -0.325378
  13 H :    0.165243
  14 H :    0.152333
  15 O :   -0.279692
  16 H :    0.168327
  17 H :    0.156528
  18 O :   -0.291119
  19 H :    0.156386
  20 H :    0.148053
  21 O :   -0.342348
  22 H :    0.157278
  23 H :    0.145103
  24 O :   -0.285221
  25 H :    0.170419
  26 H :    0.154788

  Mayer bond orders larger than 0.100000
B(  0-O ,  1-H ) :   0.8486 B(  0-O ,  2-H ) :   0.7482 B(  2-H , 24-O ) :   0.1108
B(  3-O ,  4-H ) :   0.8507 B(  3-O ,  5-H ) :   0.7385 B(  5-H , 18-O ) :   0.1183
B(  6-O ,  7-H ) :   0.8380 B(  6-O ,  8-H ) :   0.7333 B(  8-H , 15-O ) :   0.1138
B(  9-O , 10-H ) :   0.8328 B(  9-O , 11-H ) :   0.7921 B(  9-O , 23-H ) :   0.1097
B( 12-O , 13-H ) :   0.8466 B( 12-O , 14-H ) :   0.8034 B( 15-O , 16-H ) :   0.8413
B( 15-O , 17-H ) :   0.7748 B( 18-O , 19-H ) :   0.8030 B( 18-O , 20-H ) :   0.7974
B( 21-O , 22-H ) :   0.8464 B( 21-O , 23-H ) :   0.7478 B( 24-O , 25-H ) :   0.8408
B( 24-O , 26-H ) :   0.7775

MP2 TOTAL ENERGY:     -686.926905268 Eh
FINAL SINGLE POINT ENERGY      -686.926905267884

DIPOLE MOMENT
-------------
                                X             Y             Z
Electronic contribution:     -0.12140      -0.13204      -0.27481
Nuclear contribution   :      0.45394       0.45439      -0.77428
                        -----------------------------------------
Total Dipole Moment    :      0.33255       0.32235      -1.04909
                        -----------------------------------------
Magnitude (a.u.)       :      1.14677
Magnitude (Debye)      :      2.91487

Rotational constants in cm-1:     0.027070     0.011693     0.011225
Rotational constants in MHz :   811.538930   350.535664   336.518577

                             ****ORCA TERMINATED NORMALLY****
TOTAL RUN TIME: 0 days 0 hours 4 minutes 4 seconds 164 msec
