                         Program Version 4.2.0 -  RELEASE  -
|  1> # 12h2o.su.etal.mol0,1,2,3,5,6,9,10
|  2> ! MP2 def2-TZVP EnGrad TightSCF
|  3>
|  4> %pal
|  5>     nprocs 6
|  6> end
|  7>
|  8> %maxcore 8000
|  9>
| 10> %scf
| 11>     ConvForced true
| 12> end
| 13>
| 14> *xyz 0 1
| 15> O   1.794470000   0.923410000   2.768350000
| 16> H   2.338250000   1.359750000   3.430940000
| 17> H   0.879480000   1.303000000   2.865760000
| 18> O  -1.794470000  -0.923410000   2.768350000
| 19> H  -2.338250000  -1.359750000   3.430940000
| 20> H  -0.879480000  -1.303000000   2.865760000
| 21> O   0.923410000  -1.794470000  -2.768350000
| 22> H   1.359750000  -2.338250000  -3.430940000
| 23> H   1.303000000  -0.879480000  -2.865760000
| 24> O  -1.752130000  -0.741530000  -2.896280000
| 25> H  -2.036450000  -0.920500000  -1.984040000
| 26> H  -0.921210000  -1.242140000  -2.984230000
| 27> O   0.885520000  -1.737840000   0.052730000
| 28> H   1.284090000  -0.839590000   0.017130000
| 29> H   1.032320000  -2.090180000  -0.841890000
| 30> O   1.737840000   0.885520000  -0.052730000
| 31> H   2.090180000   1.032320000   0.841890000
| 32> H   0.839590000   1.284090000  -0.017130000
| 33> O   0.741530000  -1.752130000   2.896280000
| 34> H   0.920500000  -2.036450000   1.984040000
| 35> H   1.242140000  -0.921210000   2.984230000
| 36> O  -0.923410000   1.794470000  -2.768350000
| 37> H  -1.359750000   2.338250000  -3.430940000
| 38> H  -1.303000000   0.879480000  -2.865760000
| 39> *
| 40>
| 41>                          ****END OF INPUT****

CARTESIAN COORDINATES (ANGSTROEM)
---------------------------------
  O      1.794470    0.923410    2.768350
  H      2.338250    1.359750    3.430940
  H      0.879480    1.303000    2.865760
  O     -1.794470   -0.923410    2.768350
  H     -2.338250   -1.359750    3.430940
  H     -0.879480   -1.303000    2.865760
  O      0.923410   -1.794470   -2.768350
  H      1.359750   -2.338250   -3.430940
  H      1.303000   -0.879480   -2.865760
  O     -1.752130   -0.741530   -2.896280
  H     -2.036450   -0.920500   -1.984040
  H     -0.921210   -1.242140   -2.984230
  O      0.885520   -1.737840    0.052730
  H      1.284090   -0.839590    0.017130
  H      1.032320   -2.090180   -0.841890
  O      1.737840    0.885520   -0.052730
  H      2.090180    1.032320    0.841890
  H      0.839590    1.284090   -0.017130
  O      0.741530   -1.752130    2.896280
  H      0.920500   -2.036450    1.984040
  H      1.242140   -0.921210    2.984230
  O     -0.923410    1.794470   -2.768350
  H     -1.359750    2.338250   -3.430940
  H     -1.303000    0.879480   -2.865760

 Total Charge           Charge          ....    0
 Multiplicity           Mult            ....    1
 Number of Electrons    NEL             ....   80
 Basis Dimension        Dim             ....  344

ORBITAL ENERGIES
----------------

  NO   OCC          E(Eh)            E(eV)
   0   2.0000     -20.618527      -561.0586
   1   2.0000     -20.610250      -560.8334
   2   2.0000     -20.569261      -559.7180
   3   2.0000     -20.564675      -559.5933
   4   2.0000     -20.535168      -558.7903
   5   2.0000     -20.525325      -558.5225
   6   2.0000     -20.517631      -558.3131
   7   2.0000     -20.502937      -557.9133
   8   2.0000      -1.399052       -38.0701
   9   2.0000      -1.390755       -37.8444
  10   2.0000      -1.353468       -36.8297
  11   2.0000      -1.353267       -36.8243
  12   2.0000      -1.329451       -36.1762
  13   2.0000      -1.309368       -35.6297
  14   2.0000      -1.299317       -35.3562
  15   2.0000      -1.284174       -34.9442
  16   2.0000      -0.764296       -20.7976
  17   2.0000      -0.756226       -20.5779
  18   2.0000      -0.717365       -19.5205
  19   2.0000      -0.715843       -19.4791
  20   2.0000      -0.700112       -19.0510
  21   2.0000      -0.689378       -18.7589
  22   2.0000      -0.686274       -18.6745
  23   2.0000      -0.670236       -18.2381
  24   2.0000      -0.640053       -17.4167
  25   2.0000      -0.631503       -17.1841
  26   2.0000      -0.600945       -16.3526
  27   2.0000      -0.595370       -16.2009
  28   2.0000      -0.585764       -15.9394
  29   2.0000      -0.562361       -15.3026
  30   2.0000      -0.550990       -14.9932
  31   2.0000      -0.545927       -14.8554
  32   2.0000      -0.537215       -14.6184
  33   2.0000      -0.522745       -14.2246
  34   2.0000      -0.504704       -13.7337
  35   2.0000      -0.498305       -13.5596
  36   2.0000      -0.479137       -13.0380
  37   2.0000      -0.472753       -12.8643
  38   2.0000      -0.468406       -12.7460
  39   2.0000      -0.453782       -12.3480
  40   0.0000       0.092266         2.5107
  41   0.0000       0.105719         2.8768
  42   0.0000       0.146304         3.9811
  43   0.0000       0.165464         4.5025
  44   0.0000       0.175872         4.7857

MULLIKEN ATOMIC CHARGES
-----------------------
   0 O :   -0.722988
   1 H :    0.367524
   2 H :    0.379366
   3 O :   -0.744265
   4 H :    0.319996
   5 H :    0.370077
   6 O :   -0.721953
   7 H :    0.363273
   8 H :    0.384678
   9 O :   -0.705059
  10 H :    0.364504
  11 H :    0.371971
  12 O :   -0.742318
  13 H :    0.345718
  14 H :    0.361134
  15 O :   -0.702025
  16 H :    0.374605
  17 H :    0.360722
  18 O :   -0.717651
  19 H :    0.387553
  20 H :    0.353558
  21 O :   -0.740237
  22 H :    0.325613
  23 H :    0.366204
Sum of atomic charges:    0.0000000

LOEWDIN ATOMIC CHARGES
----------------------
   0 O :   -0.288123
   1 H :    0.169504
   2 H :    0.195467
   3 O :   -0.379724
   4 H :    0.145682
   5 H :    0.141641
   6 O :   -0.287605
   7 H :    0.167701
   8 H :    0.196846
   9 O :   -0.283011
  10 H :    0.175753
  11 H :    0.152064
  12 O :   -0.347374
  13 H :    0.138748
  14 H :    0.145496
  15 O :   -0.298776
  16 H :    0.151068
  17 H :    0.179236
  18 O :   -0.289844
  19 H :    0.157807
  20 H :    0.144213
  21 O :   -0.377038
  22 H :    0.148978
  23 H :    0.141291

  Mayer bond orders larger than 0.100000
B(  0-O ,  1-H ) :   0.8302 B(  0-O ,  2-H ) :   0.8127 B(  3-O ,  4-H ) :   0.8632
B(  3-O ,  5-H ) :   0.7674 B(  5-H , 18-O ) :   0.1046 B(  6-O ,  7-H ) :   0.8326
B(  6-O ,  8-H ) :   0.8094 B(  9-O , 10-H ) :   0.8323 B(  9-O , 11-H ) :   0.8056
B( 12-O , 13-H ) :   0.7817 B( 12-O , 14-H ) :   0.8252 B( 15-O , 16-H ) :   0.8100
B( 15-O , 17-H ) :   0.8294 B( 18-O , 19-H ) :   0.7947 B( 18-O , 20-H ) :   0.8237
B( 21-O , 22-H ) :   0.8601 B( 21-O , 23-H ) :   0.7733

MP2 TOTAL ENERGY:     -610.574164614 Eh
FINAL SINGLE POINT ENERGY      -610.574164614258

DIPOLE MOMENT
-------------
                                X             Y             Z
Electronic contribution:      0.38752      -0.20825      -0.19366
Nuclear contribution   :      1.02017       0.79765       0.00000
                        -----------------------------------------
Total Dipole Moment    :      1.40769       0.58941      -0.19366
                        -----------------------------------------
Magnitude (a.u.)       :      1.53834
Magnitude (Debye)      :      3.91016

Rotational constants in cm-1:     0.033201     0.014939     0.014378
Rotational constants in MHz :   995.350814   447.869348   431.026735

                             ****ORCA TERMINATED NORMALLY****
TOTAL RUN TIME: 0 days 0 hours 4 minutes 20 seconds 909 msec
