                         Program Version 4.2.0 -  RELEASE  -
|  1> # 12meoh.boyd.etal.mol1,9,11
|  2> ! MP2 def2-TZVP EnGrad TightSCF
|  3>
|  4> %pal
|  5>     nprocs 6
|  6> end
|  7>
|  8> %maxcore 8000
|  9>
| 10> %scf
| 11>     ConvForced true
| 12> end
| 13>
| 14> *xyz 0 1
| 15> O   0.666045193  -2.600503172   0.138317521
| 16> H  -0.227115049  -2.712051982  -0.281868004
| 17> C   0.490021232  -1.851247678   1.341189459
| 18> H   1.466500502  -1.466176022   1.645844415
| 19> H   0.097564527  -2.488364683   2.146902740
| 20> H  -0.187588112  -1.000787499   1.200739571
| 21> O   1.390610024   3.194080770  -1.536658882
| 22> H   2.162932299   2.881562730  -0.993525056
| 23> C   1.202977189   4.580367182  -1.302880219
| 24> H   0.374773115   4.915764831  -1.934164643
| 25> H   2.098649340   5.157710875  -1.570472348
| 26> H   0.950320401   4.800436015  -0.254328827
| 27> O   3.252955559   0.588596242   1.858934315
| 28> H   3.621209177  -0.251605199   1.476063364
| 29> C   4.040824528   0.944288422   2.989639460
| 30> H   3.670521436   1.902573549   3.363847391
| 31> H   5.103749934   1.055868619   2.734277559
| 32> H   3.948540682   0.200279590   3.792908518
| 33> *
| 34>
| 35>                          ****END OF INPUT****

CARTESIAN COORDINATES (ANGSTROEM)
---------------------------------
  O      0.666045   -2.600503    0.138318
  H     -0.227115   -2.712052   -0.281868
  C      0.490021   -1.851248    1.341189
  H      1.466501   -1.466176    1.645844
  H      0.097565   -2.488365    2.146903
  H     -0.187588   -1.000787    1.200740
  O      1.390610    3.194081   -1.536659
  H      2.162932    2.881563   -0.993525
  C      1.202977    4.580367   -1.302880
  H      0.374773    4.915765   -1.934165
  H      2.098649    5.157711   -1.570472
  H      0.950320    4.800436   -0.254329
  O      3.252956    0.588596    1.858934
  H      3.621209   -0.251605    1.476063
  C      4.040825    0.944288    2.989639
  H      3.670521    1.902574    3.363847
  H      5.103750    1.055869    2.734278
  H      3.948541    0.200280    3.792909

 Total Charge           Charge          ....    0
 Multiplicity           Mult            ....    1
 Number of Electrons    NEL             ....   54
 Basis Dimension        Dim             ....  258

ORBITAL ENERGIES
----------------

  NO   OCC          E(Eh)            E(eV)
   0   2.0000     -20.565026      -559.6028
   1   2.0000     -20.551463      -559.2338
   2   2.0000     -20.548958      -559.1656
   3   2.0000     -11.277480      -306.8758
   4   2.0000     -11.265354      -306.5459
   5   2.0000     -11.263900      -306.5063
   6   2.0000      -1.354109       -36.8472
   7   2.0000      -1.339867       -36.4596
   8   2.0000      -1.339585       -36.4520
   9   2.0000      -0.926076       -25.1998
  10   2.0000      -0.912868       -24.8404
  11   2.0000      -0.912569       -24.8323
  12   2.0000      -0.688706       -18.7406
  13   2.0000      -0.675061       -18.3693
  14   2.0000      -0.674851       -18.3636
  15   2.0000      -0.623953       -16.9786
  16   2.0000      -0.610146       -16.6029
  17   2.0000      -0.609864       -16.5952
  18   2.0000      -0.598307       -16.2808
  19   2.0000      -0.585033       -15.9196
  20   2.0000      -0.582617       -15.8538
  21   2.0000      -0.506905       -13.7936
  22   2.0000      -0.494976       -13.4690
  23   2.0000      -0.492151       -13.3921
  24   2.0000      -0.455769       -12.4021
  25   2.0000      -0.442706       -12.0466
  26   2.0000      -0.440942       -11.9986
  27   0.0000       0.121428         3.3042
  28   0.0000       0.144061         3.9201
  29   0.0000       0.149142         4.0584
  30   0.0000       0.169448         4.6109
  31   0.0000       0.185245         5.0408

MULLIKEN ATOMIC CHARGES
-----------------------
   0 O :   -0.502309
   1 H :    0.323047
   2 C :   -0.154136
   3 H :    0.097143
   4 H :    0.103534
   5 H :    0.117313
   6 O :   -0.499709
   7 H :    0.328002
   8 C :   -0.169814
   9 H :    0.126119
  10 H :    0.106100
  11 H :    0.107411
  12 O :   -0.490783
  13 H :    0.331097
  14 C :   -0.179697
  15 H :    0.129244
  16 H :    0.114533
  17 H :    0.112905
Sum of atomic charges:    0.0000000

LOEWDIN ATOMIC CHARGES
----------------------
   0 O :   -0.114857
   1 H :    0.189822
   2 C :   -0.378538
   3 H :    0.102515
   4 H :    0.093951
   5 H :    0.099544
   6 O :   -0.105674
   7 H :    0.193055
   8 C :   -0.386966
   9 H :    0.109273
  10 H :    0.094224
  11 H :    0.094837
  12 O :   -0.105199
  13 H :    0.191328
  14 C :   -0.381088
  15 H :    0.110198
  16 H :    0.096926
  17 H :    0.096649

  Mayer bond orders larger than 0.100000
B(  0-O ,  1-H ) :   0.8430 B(  0-O ,  2-C ) :   0.9301 B(  2-C ,  3-H ) :   0.9338
B(  2-C ,  4-H ) :   0.9381 B(  2-C ,  5-H ) :   0.9450 B(  6-O ,  7-H ) :   0.8366
B(  6-O ,  8-C ) :   0.9329 B(  8-C ,  9-H ) :   0.9380 B(  8-C , 10-H ) :   0.9403
B(  8-C , 11-H ) :   0.9373 B( 12-O , 13-H ) :   0.8348 B( 12-O , 14-C ) :   0.9262
B( 14-C , 15-H ) :   0.9382 B( 14-C , 16-H ) :   0.9390 B( 14-C , 17-H ) :   0.9365

MP2 TOTAL ENERGY:     -346.522839305 Eh
FINAL SINGLE POINT ENERGY      -346.522839305066

DIPOLE MOMENT
-------------
                                X             Y             Z
Electronic contribution:     -0.54943      -2.98844      -3.23927
Nuclear contribution   :      0.91040       3.25745       4.14774
                        -----------------------------------------
Total Dipole Moment    :      0.36096       0.26901       0.90847
                        -----------------------------------------
Magnitude (a.u.)       :      1.01389
Magnitude (Debye)      :      2.57712

Rotational constants in cm-1:     0.047618     0.022967     0.016126
Rotational constants in MHz :  1427.552357   688.529639   483.453029

                             ****ORCA TERMINATED NORMALLY****
TOTAL RUN TIME: 0 days 0 hours 0 minutes 59 seconds 22 msec
