                         Program Version 4.2.0 -  RELEASE  -
|  1> # 12meoh.boyd.etal.mol2,8,9
|  2> ! MP2 def2-TZVP EnGrad TightSCF
|  3>
|  4> %pal
|  5>     nprocs 6
|  6> end
|  7>
|  8> %maxcore 8000
|  9>
| 10> %scf
| 11>     ConvForced true
| 12> end
| 13>
| 14> *xyz 0 1
| 15> O  -3.839777402   2.233595098   0.660436763
| 16> H  -2.958345897   1.907036203   0.973588449
| 17> C  -3.600368059   3.168790682  -0.390480452
| 18> H  -4.551709193   3.344148967  -0.901254863
| 19> H  -2.868237594   2.789240199  -1.113617525
| 20> H  -3.243594915   4.128998607   0.009549480
| 21> O   3.570084754   2.361662577  -0.202416728
| 22> H   3.393280933   1.755669977   0.560634073
| 23> C   4.368082883   1.644741793  -1.143112807
| 24> H   4.552851717   2.311801738  -1.989632421
| 25> H   3.862427494   0.740851663  -1.508095690
| 26> H   5.333949674   1.357289092  -0.706288100
| 27> O   1.390610024   3.194080770  -1.536658882
| 28> H   2.162932299   2.881562730  -0.993525056
| 29> C   1.202977189   4.580367182  -1.302880219
| 30> H   0.374773115   4.915764831  -1.934164643
| 31> H   2.098649340   5.157710875  -1.570472348
| 32> H   0.950320401   4.800436015  -0.254328827
| 33> *
| 34>
| 35>                          ****END OF INPUT****

CARTESIAN COORDINATES (ANGSTROEM)
---------------------------------
  O     -3.839777    2.233595    0.660437
  H     -2.958346    1.907036    0.973588
  C     -3.600368    3.168791   -0.390480
  H     -4.551709    3.344149   -0.901255
  H     -2.868238    2.789240   -1.113618
  H     -3.243595    4.128999    0.009549
  O      3.570085    2.361663   -0.202417
  H      3.393281    1.755670    0.560634
  C      4.368083    1.644742   -1.143113
  H      4.552852    2.311802   -1.989632
  H      3.862427    0.740852   -1.508096
  H      5.333950    1.357289   -0.706288
  O      1.390610    3.194081   -1.536659
  H      2.162932    2.881563   -0.993525
  C      1.202977    4.580367   -1.302880
  H      0.374773    4.915765   -1.934165
  H      2.098649    5.157711   -1.570472
  H      0.950320    4.800436   -0.254329

 Total Charge           Charge          ....    0
 Multiplicity           Mult            ....    1
 Number of Electrons    NEL             ....   54
 Basis Dimension        Dim             ....  258

ORBITAL ENERGIES
----------------

  NO   OCC          E(Eh)            E(eV)
   0   2.0000     -20.593748      -560.3844
   1   2.0000     -20.549925      -559.1919
   2   2.0000     -20.519788      -558.3718
   3   2.0000     -11.292429      -307.2826
   4   2.0000     -11.263633      -306.4990
   5   2.0000     -11.253324      -306.2185
   6   2.0000      -1.387347       -37.7516
   7   2.0000      -1.339334       -36.4451
   8   2.0000      -1.317850       -35.8605
   9   2.0000      -0.944475       -25.7005
  10   2.0000      -0.911766       -24.8104
  11   2.0000      -0.900273       -24.4977
  12   2.0000      -0.721337       -19.6286
  13   2.0000      -0.677139       -18.4259
  14   2.0000      -0.674100       -18.3432
  15   2.0000      -0.636066       -17.3082
  16   2.0000      -0.613693       -16.6994
  17   2.0000      -0.609001       -16.5718
  18   2.0000      -0.595292       -16.1987
  19   2.0000      -0.582704       -15.8562
  20   2.0000      -0.567831       -15.4515
  21   2.0000      -0.532701       -14.4955
  22   2.0000      -0.493999       -13.4424
  23   2.0000      -0.492306       -13.3963
  24   2.0000      -0.460453       -12.5296
  25   2.0000      -0.441891       -12.0245
  26   2.0000      -0.421747       -11.4763
  27   0.0000       0.114847         3.1251
  28   0.0000       0.135910         3.6983
  29   0.0000       0.160601         4.3702
  30   0.0000       0.162697         4.4272
  31   0.0000       0.188760         5.1364

MULLIKEN ATOMIC CHARGES
-----------------------
   0 O :   -0.500243
   1 H :    0.321389
   2 C :   -0.177221
   3 H :    0.125420
   4 H :    0.123665
   5 H :    0.106484
   6 O :   -0.514797
   7 H :    0.340822
   8 C :   -0.193444
   9 H :    0.146328
  10 H :    0.133324
  11 H :    0.126480
  12 O :   -0.537437
  13 H :    0.343190
  14 C :   -0.158557
  15 H :    0.119030
  16 H :    0.099923
  17 H :    0.095642
Sum of atomic charges:   -0.0000000

LOEWDIN ATOMIC CHARGES
----------------------
   0 O :   -0.112855
   1 H :    0.188044
   2 C :   -0.378391
   3 H :    0.108489
   4 H :    0.099389
   5 H :    0.095149
   6 O :   -0.077572
   7 H :    0.196496
   8 C :   -0.370708
   9 H :    0.117283
  10 H :    0.104042
  11 H :    0.103764
  12 O :   -0.122777
  13 H :    0.157818
  14 C :   -0.397138
  15 H :    0.104946
  16 H :    0.092851
  17 H :    0.091169

  Mayer bond orders larger than 0.100000
B(  0-O ,  1-H ) :   0.8441 B(  0-O ,  2-C ) :   0.9242 B(  2-C ,  3-H ) :   0.9373
B(  2-C ,  4-H ) :   0.9408 B(  2-C ,  5-H ) :   0.9381 B(  6-O ,  7-H ) :   0.8294
B(  6-O ,  8-C ) :   0.8660 B(  8-C ,  9-H ) :   0.9382 B(  8-C , 10-H ) :   0.9398
B(  8-C , 11-H ) :   0.9334 B( 12-O , 13-H ) :   0.7876 B( 12-O , 14-C ) :   0.9402
B( 14-C , 15-H ) :   0.9409 B( 14-C , 16-H ) :   0.9367 B( 14-C , 17-H ) :   0.9424

MP2 TOTAL ENERGY:     -346.530965525 Eh
FINAL SINGLE POINT ENERGY      -346.530965524963

DIPOLE MOMENT
-------------
                                X             Y             Z
Electronic contribution:     -0.95117      -2.13815       2.04906
Nuclear contribution   :      2.58969       1.77745      -1.70844
                        -----------------------------------------
Total Dipole Moment    :      1.63852      -0.36070       0.34062
                        -----------------------------------------
Magnitude (a.u.)       :      1.71198
Magnitude (Debye)      :      4.35151

Rotational constants in cm-1:     0.128399     0.016447     0.015152
Rotational constants in MHz :  3849.297671   493.072611   454.240815

                             ****ORCA TERMINATED NORMALLY****
TOTAL RUN TIME: 0 days 0 hours 1 minutes 5 seconds 652 msec
