                         Program Version 4.2.0 -  RELEASE  -
|  1> # 12mecn.remya.etal.2.mol1,9,11
|  2> ! MP2 def2-TZVP EnGrad TightSCF
|  3>
|  4> %pal
|  5>     nprocs 6
|  6> end
|  7>
|  8> %maxcore 8000
|  9>
| 10> %scf
| 11>     ConvForced true
| 12> end
| 13>
| 14> *xyz 0 1
| 15> C  -4.697980000  -0.249690000   1.746215000
| 16> H  -4.927570000   0.755530000   2.111799000
| 17> H  -3.709180000  -0.561560000   2.093253000
| 18> H  -5.432280000  -0.961520000   2.128066000
| 19> C  -4.714100000  -0.247110000   0.301670000
| 20> N  -4.729750000  -0.234960000  -0.865260000
| 21> C   0.923766000   4.000693000  -1.575910000
| 22> H   0.011949000   4.478423000  -1.939550000
| 23> H   0.947903000   2.966558000  -1.929960000
| 24> H   1.805950000   4.519548000  -1.956520000
| 25> C   0.942834000   3.994846000  -0.131200000
| 26> N   0.960035000   3.982544000   1.035639000
| 27> C   4.214163000   3.378139000   1.593627000
| 28> H   3.242643000   3.657109000   2.012358000
| 29> H   4.969258000   4.086643000   1.941290000
| 30> H   4.482966000   2.372549000   1.931698000
| 31> C   4.130759000   3.388436000   0.150192000
| 32> N   4.050180000   3.381449000  -1.013420000
| 33> *
| 34>
| 35>                          ****END OF INPUT****

CARTESIAN COORDINATES (ANGSTROEM)
---------------------------------
  C     -4.697980   -0.249690    1.746215
  H     -4.927570    0.755530    2.111799
  H     -3.709180   -0.561560    2.093253
  H     -5.432280   -0.961520    2.128066
  C     -4.714100   -0.247110    0.301670
  N     -4.729750   -0.234960   -0.865260
  C      0.923766    4.000693   -1.575910
  H      0.011949    4.478423   -1.939550
  H      0.947903    2.966558   -1.929960
  H      1.805950    4.519548   -1.956520
  C      0.942834    3.994846   -0.131200
  N      0.960035    3.982544    1.035639
  C      4.214163    3.378139    1.593627
  H      3.242643    3.657109    2.012358
  H      4.969258    4.086643    1.941290
  H      4.482966    2.372549    1.931698
  C      4.130759    3.388436    0.150192
  N      4.050180    3.381449   -1.013420

 Total Charge           Charge          ....    0
 Multiplicity           Mult            ....    1
 Number of Electrons    NEL             ....   66
 Basis Dimension        Dim             ....  333

ORBITAL ENERGIES
----------------

  NO   OCC          E(Eh)            E(eV)
   0   2.0000     -15.572912      -423.7605
   1   2.0000     -15.571209      -423.7142
   2   2.0000     -15.570252      -423.6881
   3   2.0000     -11.284032      -307.0541
   4   2.0000     -11.282807      -307.0208
   5   2.0000     -11.282800      -307.0206
   6   2.0000     -11.280088      -306.9468
   7   2.0000     -11.272629      -306.7438
   8   2.0000     -11.270310      -306.6807
   9   2.0000      -1.218100       -33.1462
  10   2.0000      -1.214185       -33.0396
  11   2.0000      -1.213434       -33.0192
  12   2.0000      -1.043539       -28.3961
  13   2.0000      -1.036194       -28.1963
  14   2.0000      -1.032959       -28.1082
  15   2.0000      -0.699499       -19.0343
  16   2.0000      -0.694988       -18.9116
  17   2.0000      -0.690363       -18.7857
  18   2.0000      -0.633344       -17.2342
  19   2.0000      -0.630785       -17.1645
  20   2.0000      -0.629248       -17.1227
  21   2.0000      -0.622875       -16.9493
  22   2.0000      -0.617614       -16.8061
  23   2.0000      -0.615170       -16.7396
  24   2.0000      -0.559025       -15.2118
  25   2.0000      -0.555886       -15.1264
  26   2.0000      -0.555788       -15.1238
  27   2.0000      -0.462383       -12.5821
  28   2.0000      -0.458633       -12.4800
  29   2.0000      -0.457521       -12.4498
  30   2.0000      -0.457012       -12.4359
  31   2.0000      -0.456899       -12.4329
  32   2.0000      -0.453180       -12.3316
  33   0.0000       0.120008         3.2656
  34   0.0000       0.127301         3.4640
  35   0.0000       0.145430         3.9574
  36   0.0000       0.170980         4.6526
  37   0.0000       0.171700         4.6722

MULLIKEN ATOMIC CHARGES
-----------------------
   0 C :   -0.277765
   1 H :    0.173275
   2 H :    0.172841
   3 H :    0.171534
   4 C :   -0.145776
   5 N :   -0.094109
   6 C :   -0.266521
   7 H :    0.171590
   8 H :    0.172343
   9 H :    0.189940
  10 C :   -0.113575
  11 N :   -0.153126
  12 C :   -0.287924
  13 H :    0.204851
  14 H :    0.166747
  15 H :    0.166087
  16 C :   -0.109647
  17 N :   -0.140765
Sum of atomic charges:    0.0000000

LOEWDIN ATOMIC CHARGES
----------------------
   0 C :   -0.283231
   1 H :    0.153497
   2 H :    0.153300
   3 H :    0.151475
   4 C :   -0.219434
   5 N :    0.044393
   6 C :   -0.282879
   7 H :    0.149565
   8 H :    0.157348
   9 H :    0.156310
  10 C :   -0.208593
  11 N :    0.025909
  12 C :   -0.282815
  13 H :    0.156958
  14 H :    0.149983
  15 H :    0.152575
  16 C :   -0.208947
  17 N :    0.034586

  Mayer bond orders larger than 0.100000
B(  0-C ,  1-H ) :   0.9154 B(  0-C ,  2-H ) :   0.9161 B(  0-C ,  3-H ) :   0.9171
B(  0-C ,  4-C ) :   0.9020 B(  4-C ,  5-N ) :   2.8380 B(  6-C ,  7-H ) :   0.9114
B(  6-C ,  8-H ) :   0.9140 B(  6-C ,  9-H ) :   0.9078 B(  6-C , 10-C ) :   0.9090
B( 10-C , 11-N ) :   2.7755 B( 12-C , 13-H ) :   0.9022 B( 12-C , 14-H ) :   0.9163
B( 12-C , 15-H ) :   0.9150 B( 12-C , 16-C ) :   0.9010 B( 16-C , 17-N ) :   2.7852

MP2 TOTAL ENERGY:     -397.459658976 Eh
FINAL SINGLE POINT ENERGY      -397.459658975609

DIPOLE MOMENT
-------------
                                X             Y             Z
Electronic contribution:     -0.19278       0.06136      -3.13641
Nuclear contribution   :      0.28134      -0.07012       4.64119
                        -----------------------------------------
Total Dipole Moment    :      0.08855      -0.00877       1.50478
                        -----------------------------------------
Magnitude (a.u.)       :      1.50741
Magnitude (Debye)      :      3.83152

Rotational constants in cm-1:     0.066001     0.008103     0.007714
Rotational constants in MHz :  1978.660728   242.911727   231.252701

                             ****ORCA TERMINATED NORMALLY****
TOTAL RUN TIME: 0 days 0 hours 2 minutes 57 seconds 550 msec
