                         Program Version 4.2.0 -  RELEASE  -
|  1> # 12h2o.su.etal.mol0,1,2,4,8,10,11
|  2> ! MP2 def2-TZVP EnGrad TightSCF
|  3>
|  4> %pal
|  5>     nprocs 6
|  6> end
|  7>
|  8> %maxcore 8000
|  9>
| 10> %scf
| 11>     ConvForced true
| 12> end
| 13>
| 14> *xyz 0 1
| 15> O   1.794470000   0.923410000   2.768350000
| 16> H   2.338250000   1.359750000   3.430940000
| 17> H   0.879480000   1.303000000   2.865760000
| 18> O  -1.794470000  -0.923410000   2.768350000
| 19> H  -2.338250000  -1.359750000   3.430940000
| 20> H  -0.879480000  -1.303000000   2.865760000
| 21> O   0.923410000  -1.794470000  -2.768350000
| 22> H   1.359750000  -2.338250000  -3.430940000
| 23> H   1.303000000  -0.879480000  -2.865760000
| 24> O  -0.885520000   1.737840000   0.052730000
| 25> H  -1.032320000   2.090180000  -0.841890000
| 26> H  -1.284090000   0.839590000   0.017130000
| 27> O   1.752130000   0.741530000  -2.896280000
| 28> H   2.036450000   0.920500000  -1.984040000
| 29> H   0.921210000   1.242140000  -2.984230000
| 30> O  -0.923410000   1.794470000  -2.768350000
| 31> H  -1.359750000   2.338250000  -3.430940000
| 32> H  -1.303000000   0.879480000  -2.865760000
| 33> O  -0.741530000   1.752130000   2.896280000
| 34> H  -0.920500000   2.036450000   1.984040000
| 35> H  -1.242140000   0.921210000   2.984230000
| 36> *
| 37>
| 38>                          ****END OF INPUT****

CARTESIAN COORDINATES (ANGSTROEM)
---------------------------------
  O      1.794470    0.923410    2.768350
  H      2.338250    1.359750    3.430940
  H      0.879480    1.303000    2.865760
  O     -1.794470   -0.923410    2.768350
  H     -2.338250   -1.359750    3.430940
  H     -0.879480   -1.303000    2.865760
  O      0.923410   -1.794470   -2.768350
  H      1.359750   -2.338250   -3.430940
  H      1.303000   -0.879480   -2.865760
  O     -0.885520    1.737840    0.052730
  H     -1.032320    2.090180   -0.841890
  H     -1.284090    0.839590    0.017130
  O      1.752130    0.741530   -2.896280
  H      2.036450    0.920500   -1.984040
  H      0.921210    1.242140   -2.984230
  O     -0.923410    1.794470   -2.768350
  H     -1.359750    2.338250   -3.430940
  H     -1.303000    0.879480   -2.865760
  O     -0.741530    1.752130    2.896280
  H     -0.920500    2.036450    1.984040
  H     -1.242140    0.921210    2.984230

 Total Charge           Charge          ....    0
 Multiplicity           Mult            ....    1
 Number of Electrons    NEL             ....   70
 Basis Dimension        Dim             ....  301

ORBITAL ENERGIES
----------------

  NO   OCC          E(Eh)            E(eV)
   0   2.0000     -20.625051      -561.2362
   1   2.0000     -20.588779      -560.2492
   2   2.0000     -20.568563      -559.6990
   3   2.0000     -20.562852      -559.5436
   4   2.0000     -20.533261      -558.7384
   5   2.0000     -20.516492      -558.2821
   6   2.0000     -20.499129      -557.8096
   7   2.0000      -1.405409       -38.2431
   8   2.0000      -1.366712       -37.1901
   9   2.0000      -1.357368       -36.9359
  10   2.0000      -1.344996       -36.5992
  11   2.0000      -1.324350       -36.0374
  12   2.0000      -1.298432       -35.3321
  13   2.0000      -1.280520       -34.8447
  14   2.0000      -0.770885       -20.9768
  15   2.0000      -0.733670       -19.9642
  16   2.0000      -0.720722       -19.6119
  17   2.0000      -0.716038       -19.4844
  18   2.0000      -0.690365       -18.7858
  19   2.0000      -0.686204       -18.6726
  20   2.0000      -0.666712       -18.1422
  21   2.0000      -0.644115       -17.5273
  22   2.0000      -0.612081       -16.6556
  23   2.0000      -0.603655       -16.4263
  24   2.0000      -0.588263       -16.0074
  25   2.0000      -0.569216       -15.4892
  26   2.0000      -0.553764       -15.0687
  27   2.0000      -0.544086       -14.8053
  28   2.0000      -0.533140       -14.5075
  29   2.0000      -0.518500       -14.1091
  30   2.0000      -0.508558       -13.8386
  31   2.0000      -0.500293       -13.6137
  32   2.0000      -0.472191       -12.8490
  33   2.0000      -0.467223       -12.7138
  34   2.0000      -0.450024       -12.2458
  35   0.0000       0.086820         2.3625
  36   0.0000       0.114585         3.1180
  37   0.0000       0.148442         4.0393
  38   0.0000       0.166162         4.5215
  39   0.0000       0.170757         4.6465

MULLIKEN ATOMIC CHARGES
-----------------------
   0 O :   -0.741403
   1 H :    0.318279
   2 H :    0.369235
   3 O :   -0.705780
   4 H :    0.354207
   5 H :    0.373236
   6 O :   -0.739809
   7 H :    0.325377
   8 H :    0.365300
   9 O :   -0.709506
  10 H :    0.369643
  11 H :    0.342594
  12 O :   -0.702983
  13 H :    0.366433
  14 H :    0.369278
  15 O :   -0.721611
  16 H :    0.368596
  17 H :    0.378193
  18 O :   -0.718628
  19 H :    0.382017
  20 H :    0.357333
Sum of atomic charges:   -0.0000000

LOEWDIN ATOMIC CHARGES
----------------------
   0 O :   -0.378479
   1 H :    0.144885
   2 H :    0.141625
   3 O :   -0.313155
   4 H :    0.164493
   5 H :    0.193292
   6 O :   -0.376944
   7 H :    0.148435
   8 H :    0.140844
   9 O :   -0.323199
  10 H :    0.150757
  11 H :    0.172169
  12 O :   -0.282051
  13 H :    0.176743
  14 H :    0.150950
  15 O :   -0.287415
  16 H :    0.170168
  17 H :    0.194938
  18 O :   -0.290411
  19 H :    0.155867
  20 H :    0.146489

  Mayer bond orders larger than 0.100000
B(  0-O ,  1-H ) :   0.8640 B(  0-O ,  2-H ) :   0.7689 B(  2-H , 18-O ) :   0.1037
B(  3-O ,  4-H ) :   0.8408 B(  3-O ,  5-H ) :   0.8205 B(  6-O ,  7-H ) :   0.8605
B(  6-O ,  8-H ) :   0.7769 B(  9-O , 10-H ) :   0.8152 B(  9-O , 11-H ) :   0.8420
B( 12-O , 13-H ) :   0.8314 B( 12-O , 14-H ) :   0.8102 B( 15-O , 16-H ) :   0.8296
B( 15-O , 17-H ) :   0.8137 B( 18-O , 19-H ) :   0.8056 B( 18-O , 20-H ) :   0.8128

MP2 TOTAL ENERGY:     -534.242834031 Eh
FINAL SINGLE POINT ENERGY      -534.242834030706

DIPOLE MOMENT
-------------
                                X             Y             Z
Electronic contribution:     -0.22542       0.36871      -0.21033
Nuclear contribution   :     -1.47457      -0.34371      -0.77428
                        -----------------------------------------
Total Dipole Moment    :     -1.69999       0.02500      -0.98461
                        -----------------------------------------
Magnitude (a.u.)       :      1.96470
Magnitude (Debye)      :      4.99387

Rotational constants in cm-1:     0.039654     0.015497     0.014956
Rotational constants in MHz :  1188.792148   464.577610   448.371480

                             ****ORCA TERMINATED NORMALLY****
TOTAL RUN TIME: 0 days 0 hours 1 minutes 35 seconds 667 msec
