                         Program Version 4.2.0 -  RELEASE  -
|  1> # 12mecn.remya.etal.2.mol3,7,10
|  2> ! MP2 def2-TZVP EnGrad TightSCF
|  3>
|  4> %pal
|  5>     nprocs 6
|  6> end
|  7>
|  8> %maxcore 8000
|  9>
| 10> %scf
| 11>     ConvForced true
| 12> end
| 13>
| 14> *xyz 0 1
| 15> C  -5.181310000   2.853865000  -1.626100000
| 16> H  -5.488260000   3.811434000  -2.053310000
| 17> H  -5.857590000   2.068112000  -1.968630000
| 18> H  -4.170750000   2.611402000  -1.966640000
| 19> C  -5.187260000   2.919160000  -0.181450000
| 20> N  -5.181700000   2.970641000   0.983640000
| 21> C   1.502241000   0.651296000   1.710523000
| 22> H   1.309219000   1.637164000   2.143202000
| 23> H   2.493408000   0.297996000   2.009069000
| 24> H   0.746597000  -0.059850000   2.055508000
| 25> C   1.447974000   0.738517000   0.269805000
| 26> N   1.405612000   0.808047000  -0.894380000
| 27> C   4.602033000   0.321019000  -1.784800000
| 28> H   4.827650000  -0.662160000  -2.207910000
| 29> H   5.320558000   1.057980000  -2.148500000
| 30> H   3.601982000   0.643751000  -2.087520000
| 31> C   4.654967000   0.244048000  -0.343060000
| 32> N   4.691648000   0.166590000   0.820757000
| 33> *
| 34>
| 35>                          ****END OF INPUT****

CARTESIAN COORDINATES (ANGSTROEM)
---------------------------------
  C     -5.181310    2.853865   -1.626100
  H     -5.488260    3.811434   -2.053310
  H     -5.857590    2.068112   -1.968630
  H     -4.170750    2.611402   -1.966640
  C     -5.187260    2.919160   -0.181450
  N     -5.181700    2.970641    0.983640
  C      1.502241    0.651296    1.710523
  H      1.309219    1.637164    2.143202
  H      2.493408    0.297996    2.009069
  H      0.746597   -0.059850    2.055508
  C      1.447974    0.738517    0.269805
  N      1.405612    0.808047   -0.894380
  C      4.602033    0.321019   -1.784800
  H      4.827650   -0.662160   -2.207910
  H      5.320558    1.057980   -2.148500
  H      3.601982    0.643751   -2.087520
  C      4.654967    0.244048   -0.343060
  N      4.691648    0.166590    0.820757

 Total Charge           Charge          ....    0
 Multiplicity           Mult            ....    1
 Number of Electrons    NEL             ....   66
 Basis Dimension        Dim             ....  333

ORBITAL ENERGIES
----------------

  NO   OCC          E(Eh)            E(eV)
   0   2.0000     -15.572583      -423.7515
   1   2.0000     -15.571085      -423.7108
   2   2.0000     -15.570555      -423.6964
   3   2.0000     -11.283487      -307.0393
   4   2.0000     -11.282994      -307.0259
   5   2.0000     -11.282960      -307.0250
   6   2.0000     -11.279833      -306.9399
   7   2.0000     -11.272151      -306.7308
   8   2.0000     -11.270375      -306.6825
   9   2.0000      -1.217883       -33.1403
  10   2.0000      -1.214353       -33.0442
  11   2.0000      -1.213581       -33.0232
  12   2.0000      -1.042579       -28.3700
  13   2.0000      -1.036583       -28.2069
  14   2.0000      -1.033429       -28.1210
  15   2.0000      -0.700073       -19.0500
  16   2.0000      -0.694295       -18.8927
  17   2.0000      -0.689349       -18.7581
  18   2.0000      -0.631252       -17.1772
  19   2.0000      -0.630022       -17.1438
  20   2.0000      -0.628820       -17.1111
  21   2.0000      -0.624766       -17.0007
  22   2.0000      -0.621705       -16.9175
  23   2.0000      -0.613456       -16.6930
  24   2.0000      -0.558964       -15.2102
  25   2.0000      -0.555830       -15.1249
  26   2.0000      -0.555748       -15.1227
  27   2.0000      -0.460121       -12.5205
  28   2.0000      -0.459404       -12.5010
  29   2.0000      -0.457687       -12.4543
  30   2.0000      -0.457126       -12.4390
  31   2.0000      -0.456537       -12.4230
  32   2.0000      -0.454638       -12.3713
  33   0.0000       0.120262         3.2725
  34   0.0000       0.129082         3.5125
  35   0.0000       0.143266         3.8985
  36   0.0000       0.170602         4.6423
  37   0.0000       0.172108         4.6833

MULLIKEN ATOMIC CHARGES
-----------------------
   0 C :   -0.281641
   1 H :    0.171832
   2 H :    0.171598
   3 H :    0.176365
   4 C :   -0.145210
   5 N :   -0.092952
   6 C :   -0.282004
   7 H :    0.168249
   8 H :    0.205051
   9 H :    0.167521
  10 C :   -0.102742
  11 N :   -0.155882
  12 C :   -0.284946
  13 H :    0.166401
  14 H :    0.166227
  15 H :    0.204820
  16 C :   -0.101938
  17 N :   -0.150748
Sum of atomic charges:   -0.0000000

LOEWDIN ATOMIC CHARGES
----------------------
   0 C :   -0.283611
   1 H :    0.151405
   2 H :    0.151525
   3 H :    0.154349
   4 C :   -0.218408
   5 N :    0.044738
   6 C :   -0.280984
   7 H :    0.153521
   8 H :    0.157241
   9 H :    0.152178
  10 C :   -0.207919
  11 N :    0.025868
  12 C :   -0.282256
  13 H :    0.152718
  14 H :    0.150267
  15 H :    0.157059
  16 C :   -0.207796
  17 N :    0.030109

  Mayer bond orders larger than 0.100000
B(  0-C ,  1-H ) :   0.9161 B(  0-C ,  2-H ) :   0.9166 B(  0-C ,  3-H ) :   0.9157
B(  0-C ,  4-C ) :   0.9028 B(  4-C ,  5-N ) :   2.8386 B(  6-C ,  7-H ) :   0.9134
B(  6-C ,  8-H ) :   0.9018 B(  6-C ,  9-H ) :   0.9155 B(  6-C , 10-C ) :   0.9014
B( 10-C , 11-N ) :   2.7751 B( 12-C , 13-H ) :   0.9141 B( 12-C , 14-H ) :   0.9166
B( 12-C , 15-H ) :   0.9019 B( 12-C , 16-C ) :   0.9020 B( 16-C , 17-N ) :   2.7715

MP2 TOTAL ENERGY:     -397.459963480 Eh
FINAL SINGLE POINT ENERGY      -397.459963480363

DIPOLE MOMENT
-------------
                                X             Y             Z
Electronic contribution:     -0.01543       0.16800       3.14814
Nuclear contribution   :      0.02519      -0.23945      -4.66640
                        -----------------------------------------
Total Dipole Moment    :      0.00976      -0.07145      -1.51826
                        -----------------------------------------
Magnitude (a.u.)       :      1.51997
Magnitude (Debye)      :      3.86345

Rotational constants in cm-1:     0.089991     0.007528     0.006993
Rotational constants in MHz :  2697.867106   225.679494   209.646491

                             ****ORCA TERMINATED NORMALLY****
TOTAL RUN TIME: 0 days 0 hours 2 minutes 37 seconds 213 msec
