                         Program Version 4.2.0 -  RELEASE  -
|  1> # 12meoh.boyd.etal.mol2,4,7
|  2> ! MP2 def2-TZVP EnGrad TightSCF
|  3>
|  4> %pal
|  5>     nprocs 6
|  6> end
|  7>
|  8> %maxcore 8000
|  9>
| 10> %scf
| 11>     ConvForced true
| 12> end
| 13>
| 14> *xyz 0 1
| 15> O  -3.839777402   2.233595098   0.660436763
| 16> H  -2.958345897   1.907036203   0.973588449
| 17> C  -3.600368059   3.168790682  -0.390480452
| 18> H  -4.551709193   3.344148967  -0.901254863
| 19> H  -2.868237594   2.789240199  -1.113617525
| 20> H  -3.243594915   4.128998607   0.009549480
| 21> O  -1.358578914   1.232360421   1.189721000
| 22> H  -1.058250183   1.216459361   0.238591307
| 23> C  -0.389763452   1.957872567   1.943072362
| 24> H  -0.747220771   2.012806578   2.975200343
| 25> H  -0.260410585   2.982763209   1.565366540
| 26> H   0.585220638   1.453754179   1.934070793
| 27> O   4.310535586  -1.588322800   0.656128299
| 28> H   3.804372199  -1.630404735  -0.196849819
| 29> C   4.312298137  -2.894980854   1.222112691
| 30> H   4.713177833  -2.819907076   2.237066773
| 31> H   4.957796734  -3.574699304   0.648211180
| 32> H   3.302735989  -3.324433205   1.269756773
| 33> *
| 34>
| 35>                          ****END OF INPUT****

CARTESIAN COORDINATES (ANGSTROEM)
---------------------------------
  O     -3.839777    2.233595    0.660437
  H     -2.958346    1.907036    0.973588
  C     -3.600368    3.168791   -0.390480
  H     -4.551709    3.344149   -0.901255
  H     -2.868238    2.789240   -1.113618
  H     -3.243595    4.128999    0.009549
  O     -1.358579    1.232360    1.189721
  H     -1.058250    1.216459    0.238591
  C     -0.389763    1.957873    1.943072
  H     -0.747221    2.012807    2.975200
  H     -0.260411    2.982763    1.565367
  H      0.585221    1.453754    1.934071
  O      4.310536   -1.588323    0.656128
  H      3.804372   -1.630405   -0.196850
  C      4.312298   -2.894981    1.222113
  H      4.713178   -2.819907    2.237067
  H      4.957797   -3.574699    0.648211
  H      3.302736   -3.324433    1.269757

 Total Charge           Charge          ....    0
 Multiplicity           Mult            ....    1
 Number of Electrons    NEL             ....   54
 Basis Dimension        Dim             ....  258

ORBITAL ENERGIES
----------------

  NO   OCC          E(Eh)            E(eV)
   0   2.0000     -20.589554      -560.2702
   1   2.0000     -20.562827      -559.5430
   2   2.0000     -20.519744      -558.3706
   3   2.0000     -11.289835      -307.2120
   4   2.0000     -11.275954      -306.8343
   5   2.0000     -11.257554      -306.3336
   6   2.0000      -1.380601       -37.5681
   7   2.0000      -1.352434       -36.8016
   8   2.0000      -1.316073       -35.8122
   9   2.0000      -0.941380       -25.6163
  10   2.0000      -0.924079       -25.1455
  11   2.0000      -0.903072       -24.5738
  12   2.0000      -0.709600       -19.3092
  13   2.0000      -0.686935       -18.6924
  14   2.0000      -0.678852       -18.4725
  15   2.0000      -0.632762       -17.2183
  16   2.0000      -0.621642       -16.9157
  17   2.0000      -0.611922       -16.6512
  18   2.0000      -0.597879       -16.2691
  19   2.0000      -0.595763       -16.2115
  20   2.0000      -0.566946       -15.4274
  21   2.0000      -0.526751       -14.3336
  22   2.0000      -0.505799       -13.7635
  23   2.0000      -0.491297       -13.3689
  24   2.0000      -0.461329       -12.5534
  25   2.0000      -0.454135       -12.3576
  26   2.0000      -0.423119       -11.5137
  27   0.0000       0.111443         3.0325
  28   0.0000       0.129179         3.5151
  29   0.0000       0.159549         4.3416
  30   0.0000       0.170333         4.6350
  31   0.0000       0.178001         4.8437

MULLIKEN ATOMIC CHARGES
-----------------------
   0 O :   -0.519919
   1 H :    0.354077
   2 C :   -0.179251
   3 H :    0.127388
   4 H :    0.080251
   5 H :    0.102537
   6 O :   -0.514232
   7 H :    0.338057
   8 C :   -0.190517
   9 H :    0.145201
  10 H :    0.123815
  11 H :    0.132387
  12 O :   -0.498246
  13 H :    0.320492
  14 C :   -0.174915
  15 H :    0.130172
  16 H :    0.110902
  17 H :    0.111802
Sum of atomic charges:    0.0000000

LOEWDIN ATOMIC CHARGES
----------------------
   0 O :   -0.119786
   1 H :    0.159158
   2 C :   -0.394564
   3 H :    0.107494
   4 H :    0.085242
   5 H :    0.092009
   6 O :   -0.077910
   7 H :    0.198660
   8 C :   -0.372811
   9 H :    0.116181
  10 H :    0.100845
  11 H :    0.105377
  12 O :   -0.110538
  13 H :    0.188828
  14 C :   -0.380721
  15 H :    0.110414
  16 H :    0.095990
  17 H :    0.096132

  Mayer bond orders larger than 0.100000
B(  0-O ,  1-H ) :   0.7958 B(  0-O ,  2-C ) :   0.9456 B(  2-C ,  3-H ) :   0.9429
B(  2-C ,  4-H ) :   0.9372 B(  2-C ,  5-H ) :   0.9385 B(  6-O ,  7-H ) :   0.8304
B(  6-O ,  8-C ) :   0.8722 B(  8-C ,  9-H ) :   0.9390 B(  8-C , 10-H ) :   0.9360
B(  8-C , 11-H ) :   0.9348 B( 12-O , 13-H ) :   0.8437 B( 12-O , 14-C ) :   0.9234
B( 14-C , 15-H ) :   0.9376 B( 14-C , 16-H ) :   0.9383 B( 14-C , 17-H ) :   0.9401

MP2 TOTAL ENERGY:     -346.528231337 Eh
FINAL SINGLE POINT ENERGY      -346.528231337172

DIPOLE MOMENT
-------------
                                X             Y             Z
Electronic contribution:     -1.36838      -0.54966       0.09170
Nuclear contribution   :      2.57538       0.29935      -0.69502
                        -----------------------------------------
Total Dipole Moment    :      1.20701      -0.25032      -0.60333
                        -----------------------------------------
Magnitude (a.u.)       :      1.37242
Magnitude (Debye)      :      3.48840

Rotational constants in cm-1:     0.192076     0.011042     0.010908
Rotational constants in MHz :  5758.279097   331.018500   327.004709

                             ****ORCA TERMINATED NORMALLY****
TOTAL RUN TIME: 0 days 0 hours 1 minutes 0 seconds 672 msec
