                         Program Version 4.2.0 -  RELEASE  -
|  1> # 12h2o.su.etal.mol0,3,4,5,7,11
|  2> ! MP2 def2-TZVP EnGrad TightSCF
|  3>
|  4> %pal
|  5>     nprocs 6
|  6> end
|  7>
|  8> %maxcore 8000
|  9>
| 10> %scf
| 11>     ConvForced true
| 12> end
| 13>
| 14> *xyz 0 1
| 15> O   1.794470000   0.923410000   2.768350000
| 16> H   2.338250000   1.359750000   3.430940000
| 17> H   0.879480000   1.303000000   2.865760000
| 18> O  -1.752130000  -0.741530000  -2.896280000
| 19> H  -2.036450000  -0.920500000  -1.984040000
| 20> H  -0.921210000  -1.242140000  -2.984230000
| 21> O  -0.885520000   1.737840000   0.052730000
| 22> H  -1.032320000   2.090180000  -0.841890000
| 23> H  -1.284090000   0.839590000   0.017130000
| 24> O   0.885520000  -1.737840000   0.052730000
| 25> H   1.284090000  -0.839590000   0.017130000
| 26> H   1.032320000  -2.090180000  -0.841890000
| 27> O  -1.737840000  -0.885520000  -0.052730000
| 28> H  -2.090180000  -1.032320000   0.841890000
| 29> H  -0.839590000  -1.284090000  -0.017130000
| 30> O  -0.741530000   1.752130000   2.896280000
| 31> H  -0.920500000   2.036450000   1.984040000
| 32> H  -1.242140000   0.921210000   2.984230000
| 33> *
| 34>
| 35>                          ****END OF INPUT****

CARTESIAN COORDINATES (ANGSTROEM)
---------------------------------
  O      1.794470    0.923410    2.768350
  H      2.338250    1.359750    3.430940
  H      0.879480    1.303000    2.865760
  O     -1.752130   -0.741530   -2.896280
  H     -2.036450   -0.920500   -1.984040
  H     -0.921210   -1.242140   -2.984230
  O     -0.885520    1.737840    0.052730
  H     -1.032320    2.090180   -0.841890
  H     -1.284090    0.839590    0.017130
  O      0.885520   -1.737840    0.052730
  H      1.284090   -0.839590    0.017130
  H      1.032320   -2.090180   -0.841890
  O     -1.737840   -0.885520   -0.052730
  H     -2.090180   -1.032320    0.841890
  H     -0.839590   -1.284090   -0.017130
  O     -0.741530    1.752130    2.896280
  H     -0.920500    2.036450    1.984040
  H     -1.242140    0.921210    2.984230

 Total Charge           Charge          ....    0
 Multiplicity           Mult            ....    1
 Number of Electrons    NEL             ....   60
 Basis Dimension        Dim             ....  258

ORBITAL ENERGIES
----------------

  NO   OCC          E(Eh)            E(eV)
   0   2.0000     -20.608857      -560.7955
   1   2.0000     -20.598335      -560.5092
   2   2.0000     -20.569930      -559.7362
   3   2.0000     -20.560487      -559.4793
   4   2.0000     -20.553654      -559.2934
   5   2.0000     -20.512866      -558.1835
   6   2.0000      -1.395950       -37.9857
   7   2.0000      -1.380092       -37.5542
   8   2.0000      -1.360121       -37.0108
   9   2.0000      -1.341314       -36.4990
  10   2.0000      -1.335211       -36.3329
  11   2.0000      -1.294807       -35.2335
  12   2.0000      -0.753631       -20.5073
  13   2.0000      -0.745624       -20.2895
  14   2.0000      -0.724326       -19.7099
  15   2.0000      -0.713469       -19.4145
  16   2.0000      -0.705339       -19.1933
  17   2.0000      -0.682766       -18.5790
  18   2.0000      -0.644864       -17.5476
  19   2.0000      -0.619070       -16.8457
  20   2.0000      -0.608567       -16.5599
  21   2.0000      -0.584317       -15.9001
  22   2.0000      -0.569361       -15.4931
  23   2.0000      -0.547318       -14.8933
  24   2.0000      -0.543697       -14.7947
  25   2.0000      -0.535614       -14.5748
  26   2.0000      -0.510891       -13.9021
  27   2.0000      -0.499647       -13.5961
  28   2.0000      -0.498675       -13.5696
  29   2.0000      -0.463429       -12.6105
  30   0.0000       0.078189         2.1276
  31   0.0000       0.108751         2.9593
  32   0.0000       0.154118         4.1938
  33   0.0000       0.160028         4.3546
  34   0.0000       0.179500         4.8845

MULLIKEN ATOMIC CHARGES
-----------------------
   0 O :   -0.740176
   1 H :    0.323991
   2 H :    0.370864
   3 O :   -0.687069
   4 H :    0.372729
   5 H :    0.313019
   6 O :   -0.733405
   7 H :    0.351752
   8 H :    0.353803
   9 O :   -0.684423
  10 H :    0.384017
  11 H :    0.348522
  12 O :   -0.731989
  13 H :    0.355541
  14 H :    0.370514
  15 O :   -0.689786
  16 H :    0.390894
  17 H :    0.331201
Sum of atomic charges:    0.0000000

LOEWDIN ATOMIC CHARGES
----------------------
   0 O :   -0.376400
   1 H :    0.148230
   2 H :    0.142783
   3 O :   -0.334859
   4 H :    0.151808
   5 H :    0.154966
   6 O :   -0.340857
   7 H :    0.169175
   8 H :    0.140352
   9 O :   -0.283271
  10 H :    0.189913
  11 H :    0.168725
  12 O :   -0.294252
  13 H :    0.168915
  14 H :    0.146821
  15 O :   -0.275818
  16 H :    0.160769
  17 H :    0.163000

  Mayer bond orders larger than 0.100000
B(  0-O ,  1-H ) :   0.8611 B(  0-O ,  2-H ) :   0.7771 B(  3-O ,  4-H ) :   0.8200
B(  3-O ,  5-H ) :   0.8654 B(  6-O ,  7-H ) :   0.8414 B(  6-O ,  8-H ) :   0.7826
B(  9-O , 10-H ) :   0.8122 B(  9-O , 11-H ) :   0.8414 B(  9-O , 14-H ) :   0.1022
B( 12-O , 13-H ) :   0.8368 B( 12-O , 14-H ) :   0.7571 B( 15-O , 16-H ) :   0.7934
B( 15-O , 17-H ) :   0.8523

MP2 TOTAL ENERGY:     -457.923200193 Eh
FINAL SINGLE POINT ENERGY      -457.923200193233

DIPOLE MOMENT
-------------
                                X             Y             Z
Electronic contribution:     -0.10199      -0.04544      -0.03092
Nuclear contribution   :      0.03473      -0.79542      -0.14168
                        -----------------------------------------
Total Dipole Moment    :     -0.06726      -0.84086      -0.17261
                        -----------------------------------------
Magnitude (a.u.)       :      0.86102
Magnitude (Debye)      :      2.18855

Rotational constants in cm-1:     0.069752     0.027118     0.022474
Rotational constants in MHz :  2091.113595   812.964672   673.740719

                             ****ORCA TERMINATED NORMALLY****
TOTAL RUN TIME: 0 days 0 hours 1 minutes 6 seconds 900 msec
