                         Program Version 4.2.0 -  RELEASE  -
|  1> # 12mecn.remya.etal.2.mol1,5,10
|  2> ! MP2 def2-TZVP EnGrad TightSCF
|  3>
|  4> %pal
|  5>     nprocs 6
|  6> end
|  7>
|  8> %maxcore 8000
|  9>
| 10> %scf
| 11>     ConvForced true
| 12> end
| 13>
| 14> *xyz 0 1
| 15> C  -4.697980000  -0.249690000   1.746215000
| 16> H  -4.927570000   0.755530000   2.111799000
| 17> H  -3.709180000  -0.561560000   2.093253000
| 18> H  -5.432280000  -0.961520000   2.128066000
| 19> C  -4.714100000  -0.247110000   0.301670000
| 20> N  -4.729750000  -0.234960000  -0.865260000
| 21> C  -1.955700000   2.515080000   1.698463000
| 22> H  -2.923830000   2.883163000   2.049269000
| 23> H  -1.154850000   3.171830000   2.050990000
| 24> H  -1.790380000   1.506115000   2.087896000
| 25> C  -1.948230000   2.482156000   0.253672000
| 26> N  -1.937550000   2.462523000  -0.913150000
| 27> C   4.602033000   0.321019000  -1.784800000
| 28> H   4.827650000  -0.662160000  -2.207910000
| 29> H   5.320558000   1.057980000  -2.148500000
| 30> H   3.601982000   0.643751000  -2.087520000
| 31> C   4.654967000   0.244048000  -0.343060000
| 32> N   4.691648000   0.166590000   0.820757000
| 33> *
| 34>
| 35>                          ****END OF INPUT****

CARTESIAN COORDINATES (ANGSTROEM)
---------------------------------
  C     -4.697980   -0.249690    1.746215
  H     -4.927570    0.755530    2.111799
  H     -3.709180   -0.561560    2.093253
  H     -5.432280   -0.961520    2.128066
  C     -4.714100   -0.247110    0.301670
  N     -4.729750   -0.234960   -0.865260
  C     -1.955700    2.515080    1.698463
  H     -2.923830    2.883163    2.049269
  H     -1.154850    3.171830    2.050990
  H     -1.790380    1.506115    2.087896
  C     -1.948230    2.482156    0.253672
  N     -1.937550    2.462523   -0.913150
  C      4.602033    0.321019   -1.784800
  H      4.827650   -0.662160   -2.207910
  H      5.320558    1.057980   -2.148500
  H      3.601982    0.643751   -2.087520
  C      4.654967    0.244048   -0.343060
  N      4.691648    0.166590    0.820757

 Total Charge           Charge          ....    0
 Multiplicity           Mult            ....    1
 Number of Electrons    NEL             ....   66
 Basis Dimension        Dim             ....  333

ORBITAL ENERGIES
----------------

  NO   OCC          E(Eh)            E(eV)
   0   2.0000     -15.572940      -423.7612
   1   2.0000     -15.572682      -423.7542
   2   2.0000     -15.572453      -423.7480
   3   2.0000     -11.290018      -307.2170
   4   2.0000     -11.289412      -307.2005
   5   2.0000     -11.282562      -307.0141
   6   2.0000     -11.279908      -306.9419
   7   2.0000     -11.278148      -306.8940
   8   2.0000     -11.278051      -306.8914
   9   2.0000      -1.214014       -33.0350
  10   2.0000      -1.213491       -33.0208
  11   2.0000      -1.212551       -32.9952
  12   2.0000      -1.048930       -28.5428
  13   2.0000      -1.046107       -28.4660
  14   2.0000      -1.042342       -28.3636
  15   2.0000      -0.704295       -19.1648
  16   2.0000      -0.701419       -19.0866
  17   2.0000      -0.698253       -19.0004
  18   2.0000      -0.642583       -17.4856
  19   2.0000      -0.639654       -17.4059
  20   2.0000      -0.634505       -17.2658
  21   2.0000      -0.632228       -17.2038
  22   2.0000      -0.629289       -17.1238
  23   2.0000      -0.627681       -17.0801
  24   2.0000      -0.555722       -15.1220
  25   2.0000      -0.554879       -15.0990
  26   2.0000      -0.553067       -15.0497
  27   2.0000      -0.462474       -12.5846
  28   2.0000      -0.457847       -12.4586
  29   2.0000      -0.457335       -12.4447
  30   2.0000      -0.456723       -12.4281
  31   2.0000      -0.455324       -12.3900
  32   2.0000      -0.449602       -12.2343
  33   0.0000       0.095721         2.6047
  34   0.0000       0.121774         3.3136
  35   0.0000       0.143001         3.8913
  36   0.0000       0.147689         4.0188
  37   0.0000       0.155777         4.2389

MULLIKEN ATOMIC CHARGES
-----------------------
   0 C :   -0.284744
   1 H :    0.164486
   2 H :    0.166459
   3 H :    0.182513
   4 C :   -0.152861
   5 N :   -0.075879
   6 C :   -0.281411
   7 H :    0.165835
   8 H :    0.184123
   9 H :    0.163642
  10 C :   -0.153721
  11 N :   -0.078434
  12 C :   -0.279314
  13 H :    0.172063
  14 H :    0.171343
  15 H :    0.178318
  16 C :   -0.145509
  17 N :   -0.096910
Sum of atomic charges:   -0.0000000

LOEWDIN ATOMIC CHARGES
----------------------
   0 C :   -0.287672
   1 H :    0.149635
   2 H :    0.149940
   3 H :    0.152734
   4 C :   -0.223740
   5 N :    0.059116
   6 C :   -0.287033
   7 H :    0.149693
   8 H :    0.154547
   9 H :    0.149148
  10 C :   -0.223292
  11 N :    0.056930
  12 C :   -0.282741
  13 H :    0.153172
  14 H :    0.151548
  15 H :    0.155096
  16 C :   -0.219158
  17 N :    0.042081

  Mayer bond orders larger than 0.100000
B(  0-C ,  1-H ) :   0.9200 B(  0-C ,  2-H ) :   0.9226 B(  0-C ,  3-H ) :   0.9111
B(  0-C ,  4-C ) :   0.8981 B(  4-C ,  5-N ) :   2.8275 B(  6-C ,  7-H ) :   0.9222
B(  6-C ,  8-H ) :   0.9100 B(  6-C ,  9-H ) :   0.9200 B(  6-C , 10-C ) :   0.8987
B( 10-C , 11-N ) :   2.8303 B( 12-C , 13-H ) :   0.9156 B( 12-C , 14-H ) :   0.9167
B( 12-C , 15-H ) :   0.9150 B( 12-C , 16-C ) :   0.9013 B( 16-C , 17-N ) :   2.8401

MP2 TOTAL ENERGY:     -397.448571668 Eh
FINAL SINGLE POINT ENERGY      -397.448571668203

DIPOLE MOMENT
-------------
                                X             Y             Z
Electronic contribution:      0.08723      -0.22618      -3.28571
Nuclear contribution   :     -0.13788       0.33668       4.65231
                        -----------------------------------------
Total Dipole Moment    :     -0.05065       0.11050       1.36660
                        -----------------------------------------
Magnitude (a.u.)       :      1.37200
Magnitude (Debye)      :      3.48734

Rotational constants in cm-1:     0.050002     0.008103     0.007977
Rotational constants in MHz :  1499.021720   242.916261   239.159034

                             ****ORCA TERMINATED NORMALLY****
TOTAL RUN TIME: 0 days 0 hours 2 minutes 23 seconds 828 msec
