                         Program Version 4.2.0 -  RELEASE  -
|  1> # 12h2o.su.etal.mol3,7,9,11
|  2> ! MP2 def2-TZVP EnGrad TightSCF
|  3>
|  4> %pal
|  5>     nprocs 6
|  6> end
|  7>
|  8> %maxcore 8000
|  9>
| 10> %scf
| 11>     ConvForced true
| 12> end
| 13>
| 14> *xyz 0 1
| 15> O  -1.752130000  -0.741530000  -2.896280000
| 16> H  -2.036450000  -0.920500000  -1.984040000
| 17> H  -0.921210000  -1.242140000  -2.984230000
| 18> O  -1.737840000  -0.885520000  -0.052730000
| 19> H  -2.090180000  -1.032320000   0.841890000
| 20> H  -0.839590000  -1.284090000  -0.017130000
| 21> O   0.741530000  -1.752130000   2.896280000
| 22> H   0.920500000  -2.036450000   1.984040000
| 23> H   1.242140000  -0.921210000   2.984230000
| 24> O  -0.741530000   1.752130000   2.896280000
| 25> H  -0.920500000   2.036450000   1.984040000
| 26> H  -1.242140000   0.921210000   2.984230000
| 27> *
| 28>
| 29>                          ****END OF INPUT****

CARTESIAN COORDINATES (ANGSTROEM)
---------------------------------
  O     -1.752130   -0.741530   -2.896280
  H     -2.036450   -0.920500   -1.984040
  H     -0.921210   -1.242140   -2.984230
  O     -1.737840   -0.885520   -0.052730
  H     -2.090180   -1.032320    0.841890
  H     -0.839590   -1.284090   -0.017130
  O      0.741530   -1.752130    2.896280
  H      0.920500   -2.036450    1.984040
  H      1.242140   -0.921210    2.984230
  O     -0.741530    1.752130    2.896280
  H     -0.920500    2.036450    1.984040
  H     -1.242140    0.921210    2.984230

 Total Charge           Charge          ....    0
 Multiplicity           Mult            ....    1
 Number of Electrons    NEL             ....   40
 Basis Dimension        Dim             ....  172

ORBITAL ENERGIES
----------------

  NO   OCC          E(Eh)            E(eV)
   0   2.0000     -20.604416      -560.6747
   1   2.0000     -20.585402      -560.1573
   2   2.0000     -20.570915      -559.7631
   3   2.0000     -20.539879      -558.9185
   4   2.0000      -1.382504       -37.6198
   5   2.0000      -1.364332       -37.1254
   6   2.0000      -1.349956       -36.7342
   7   2.0000      -1.321737       -35.9663
   8   2.0000      -0.745185       -20.2775
   9   2.0000      -0.726986       -19.7823
  10   2.0000      -0.712443       -19.3866
  11   2.0000      -0.692012       -18.8306
  12   2.0000      -0.622200       -16.9309
  13   2.0000      -0.601709       -16.3733
  14   2.0000      -0.587732       -15.9930
  15   2.0000      -0.560886       -15.2625
  16   2.0000      -0.543562       -14.7911
  17   2.0000      -0.529577       -14.4105
  18   2.0000      -0.514300       -13.9948
  19   2.0000      -0.486060       -13.2264
  20   0.0000       0.068857         1.8737
  21   0.0000       0.122442         3.3318
  22   0.0000       0.136239         3.7073
  23   0.0000       0.162256         4.4152
  24   0.0000       0.180067         4.8999

MULLIKEN ATOMIC CHARGES
-----------------------
   0 O :   -0.688729
   1 H :    0.369267
   2 H :    0.315860
   3 O :   -0.685213
   4 H :    0.352304
   5 H :    0.333853
   6 O :   -0.675892
   7 H :    0.325223
   8 H :    0.353307
   9 O :   -0.677689
  10 H :    0.343048
  11 H :    0.334659
Sum of atomic charges:   -0.0000000

LOEWDIN ATOMIC CHARGES
----------------------
   0 O :   -0.337172
   1 H :    0.152625
   2 H :    0.156614
   3 O :   -0.313042
   4 H :    0.169812
   5 H :    0.169414
   6 O :   -0.328040
   7 H :    0.158320
   8 H :    0.171974
   9 O :   -0.330036
  10 H :    0.167103
  11 H :    0.162428

  Mayer bond orders larger than 0.100000
B(  0-O ,  1-H ) :   0.8236 B(  0-O ,  2-H ) :   0.8650 B(  3-O ,  4-H ) :   0.8394
B(  3-O ,  5-H ) :   0.8454 B(  6-O ,  7-H ) :   0.8583 B(  6-O ,  8-H ) :   0.8395
B(  9-O , 10-H ) :   0.8488 B(  9-O , 11-H ) :   0.8512

MP2 TOTAL ENERGY:     -305.259944472 Eh
FINAL SINGLE POINT ENERGY      -305.259944472396

DIPOLE MOMENT
-------------
                                X             Y             Z
Electronic contribution:     -0.17293       0.20849       0.18334
Nuclear contribution   :      0.90936      -1.01960       0.08817
                        -----------------------------------------
Total Dipole Moment    :      0.73643      -0.81111       0.27151
                        -----------------------------------------
Magnitude (a.u.)       :      1.12869
Magnitude (Debye)      :      2.86890

Rotational constants in cm-1:     0.116361     0.035589     0.028547
Rotational constants in MHz :  3488.405239  1066.918099   855.823564

                             ****ORCA TERMINATED NORMALLY****
TOTAL RUN TIME: 0 days 0 hours 0 minutes 15 seconds 194 msec
