                         Program Version 4.2.0 -  RELEASE  -
|  1> # 12h2o.su.etal.mol0,2,4,9
|  2> ! MP2 def2-TZVP EnGrad TightSCF
|  3>
|  4> %pal
|  5>     nprocs 6
|  6> end
|  7>
|  8> %maxcore 8000
|  9>
| 10> %scf
| 11>     ConvForced true
| 12> end
| 13>
| 14> *xyz 0 1
| 15> O   1.794470000   0.923410000   2.768350000
| 16> H   2.338250000   1.359750000   3.430940000
| 17> H   0.879480000   1.303000000   2.865760000
| 18> O   0.923410000  -1.794470000  -2.768350000
| 19> H   1.359750000  -2.338250000  -3.430940000
| 20> H   1.303000000  -0.879480000  -2.865760000
| 21> O  -0.885520000   1.737840000   0.052730000
| 22> H  -1.032320000   2.090180000  -0.841890000
| 23> H  -1.284090000   0.839590000   0.017130000
| 24> O   0.741530000  -1.752130000   2.896280000
| 25> H   0.920500000  -2.036450000   1.984040000
| 26> H   1.242140000  -0.921210000   2.984230000
| 27> *
| 28>
| 29>                          ****END OF INPUT****

CARTESIAN COORDINATES (ANGSTROEM)
---------------------------------
  O      1.794470    0.923410    2.768350
  H      2.338250    1.359750    3.430940
  H      0.879480    1.303000    2.865760
  O      0.923410   -1.794470   -2.768350
  H      1.359750   -2.338250   -3.430940
  H      1.303000   -0.879480   -2.865760
  O     -0.885520    1.737840    0.052730
  H     -1.032320    2.090180   -0.841890
  H     -1.284090    0.839590    0.017130
  O      0.741530   -1.752130    2.896280
  H      0.920500   -2.036450    1.984040
  H      1.242140   -0.921210    2.984230

 Total Charge           Charge          ....    0
 Multiplicity           Mult            ....    1
 Number of Electrons    NEL             ....   40
 Basis Dimension        Dim             ....  172

ORBITAL ENERGIES
----------------

  NO   OCC          E(Eh)            E(eV)
   0   2.0000     -20.577554      -559.9437
   1   2.0000     -20.567778      -559.6777
   2   2.0000     -20.565802      -559.6239
   3   2.0000     -20.523001      -558.4592
   4   2.0000      -1.355272       -36.8788
   5   2.0000      -1.343098       -36.5475
   6   2.0000      -1.341803       -36.5123
   7   2.0000      -1.305380       -35.5212
   8   2.0000      -0.722320       -19.6553
   9   2.0000      -0.711533       -19.3618
  10   2.0000      -0.703896       -19.1540
  11   2.0000      -0.674503       -18.3541
  12   2.0000      -0.594957       -16.1896
  13   2.0000      -0.581907       -15.8345
  14   2.0000      -0.579262       -15.7625
  15   2.0000      -0.547706       -14.9038
  16   2.0000      -0.514514       -14.0006
  17   2.0000      -0.511002       -13.9051
  18   2.0000      -0.508608       -13.8399
  19   2.0000      -0.470832       -12.8120
  20   0.0000       0.102322         2.7843
  21   0.0000       0.124500         3.3878
  22   0.0000       0.141148         3.8408
  23   0.0000       0.173251         4.7144
  24   0.0000       0.193188         5.2569

MULLIKEN ATOMIC CHARGES
-----------------------
   0 O :   -0.694836
   1 H :    0.347937
   2 H :    0.367321
   3 O :   -0.684531
   4 H :    0.341184
   5 H :    0.343241
   6 O :   -0.682216
   7 H :    0.337108
   8 H :    0.346452
   9 O :   -0.709531
  10 H :    0.331842
  11 H :    0.356029
Sum of atomic charges:    0.0000000

LOEWDIN ATOMIC CHARGES
----------------------
   0 O :   -0.310272
   1 H :    0.161550
   2 H :    0.190447
   3 O :   -0.339993
   4 H :    0.158938
   5 H :    0.180935
   6 O :   -0.339781
   7 H :    0.165471
   8 H :    0.175843
   9 O :   -0.350913
  10 H :    0.161232
  11 H :    0.146544

  Mayer bond orders larger than 0.100000
B(  0-O ,  1-H ) :   0.8441 B(  0-O ,  2-H ) :   0.8249 B(  3-O ,  4-H ) :   0.8519
B(  3-O ,  5-H ) :   0.8451 B(  6-O ,  7-H ) :   0.8531 B(  6-O ,  8-H ) :   0.8450
B(  9-O , 10-H ) :   0.8567 B(  9-O , 11-H ) :   0.8180

MP2 TOTAL ENERGY:     -305.261314316 Eh
FINAL SINGLE POINT ENERGY      -305.261314315887

DIPOLE MOMENT
-------------
                                X             Y             Z
Electronic contribution:     -0.01508       0.03417       0.20790
Nuclear contribution   :      0.48188       0.98870      -1.46039
                        -----------------------------------------
Total Dipole Moment    :      0.46680       1.02288      -1.25249
                        -----------------------------------------
Magnitude (a.u.)       :      1.68312
Magnitude (Debye)      :      4.27816

Rotational constants in cm-1:     0.073112     0.036570     0.027950
Rotational constants in MHz :  2191.837104  1096.346924   837.930811

                             ****ORCA TERMINATED NORMALLY****
TOTAL RUN TIME: 0 days 0 hours 0 minutes 13 seconds 649 msec
