                         Program Version 4.2.0 -  RELEASE  -
|  1> # 12meoh.boyd.etal.mol2,3
|  2> ! MP2 def2-TZVP EnGrad TightSCF
|  3>
|  4> %pal
|  5>     nprocs 6
|  6> end
|  7>
|  8> %maxcore 8000
|  9>
| 10> %scf
| 11>     ConvForced true
| 12> end
| 13>
| 14> *xyz 0 1
| 15> O  -3.839777402   2.233595098   0.660436763
| 16> H  -2.958345897   1.907036203   0.973588449
| 17> C  -3.600368059   3.168790682  -0.390480452
| 18> H  -4.551709193   3.344148967  -0.901254863
| 19> H  -2.868237594   2.789240199  -1.113617525
| 20> H  -3.243594915   4.128998607   0.009549480
| 21> O  -3.821405976  -2.118091637   0.596795346
| 22> H  -4.342989117  -1.344303030   0.251966383
| 23> C  -3.443883586  -1.809641231   1.934889393
| 24> H  -2.831494349  -2.637429600   2.305201764
| 25> H  -4.325601146  -1.719364371   2.585074667
| 26> H  -2.858527126  -0.882644791   1.996110694
| 27> *
| 28>
| 29>                          ****END OF INPUT****

CARTESIAN COORDINATES (ANGSTROEM)
---------------------------------
  O     -3.839777    2.233595    0.660437
  H     -2.958346    1.907036    0.973588
  C     -3.600368    3.168791   -0.390480
  H     -4.551709    3.344149   -0.901255
  H     -2.868238    2.789240   -1.113618
  H     -3.243595    4.128999    0.009549
  O     -3.821406   -2.118092    0.596795
  H     -4.342989   -1.344303    0.251966
  C     -3.443884   -1.809641    1.934889
  H     -2.831494   -2.637430    2.305202
  H     -4.325601   -1.719364    2.585075
  H     -2.858527   -0.882645    1.996111

 Total Charge           Charge          ....    0
 Multiplicity           Mult            ....    1
 Number of Electrons    NEL             ....   36
 Basis Dimension        Dim             ....  172

ORBITAL ENERGIES
----------------

  NO   OCC          E(Eh)            E(eV)
   0   2.0000     -20.565567      -559.6175
   1   2.0000     -20.553524      -559.2898
   2   2.0000     -11.277928      -306.8880
   3   2.0000     -11.269335      -306.6542
   4   2.0000      -1.354723       -36.8639
   5   2.0000      -1.342763       -36.5384
   6   2.0000      -0.926227       -25.2039
   7   2.0000      -0.916338       -24.9348
   8   2.0000      -0.689377       -18.7589
   9   2.0000      -0.677416       -18.4334
  10   2.0000      -0.623548       -16.9676
  11   2.0000      -0.614682       -16.7263
  12   2.0000      -0.597401       -16.2561
  13   2.0000      -0.586793       -15.9674
  14   2.0000      -0.508971       -13.8498
  15   2.0000      -0.497554       -13.5391
  16   2.0000      -0.456874       -12.4322
  17   2.0000      -0.446110       -12.1393
  18   0.0000       0.113719         3.0945
  19   0.0000       0.155247         4.2245
  20   0.0000       0.169578         4.6144
  21   0.0000       0.186326         5.0702
  22   0.0000       0.221333         6.0228

MULLIKEN ATOMIC CHARGES
-----------------------
   0 O :   -0.502049
   1 H :    0.323972
   2 C :   -0.178161
   3 H :    0.130892
   4 H :    0.115511
   5 H :    0.113547
   6 O :   -0.501518
   7 H :    0.327073
   8 C :   -0.159746
   9 H :    0.128198
  10 H :    0.113196
  11 H :    0.089084
Sum of atomic charges:   -0.0000000

LOEWDIN ATOMIC CHARGES
----------------------
   0 O :   -0.112797
   1 H :    0.187613
   2 C :   -0.376935
   3 H :    0.110323
   4 H :    0.097168
   5 H :    0.097172
   6 O :   -0.110592
   7 H :    0.192414
   8 C :   -0.381102
   9 H :    0.109503
  10 H :    0.097318
  11 H :    0.089915

  Mayer bond orders larger than 0.100000
B(  0-O ,  1-H ) :   0.8413 B(  0-O ,  2-C ) :   0.9195 B(  2-C ,  3-H ) :   0.9379
B(  2-C ,  4-H ) :   0.9408 B(  2-C ,  5-H ) :   0.9382 B(  6-O ,  7-H ) :   0.8383
B(  6-O ,  8-C ) :   0.9307 B(  8-C ,  9-H ) :   0.9381 B(  8-C , 10-H ) :   0.9416
B(  8-C , 11-H ) :   0.9378

MP2 TOTAL ENERGY:     -231.015261993 Eh
FINAL SINGLE POINT ENERGY      -231.015261992973

DIPOLE MOMENT
-------------
                                X             Y             Z
Electronic contribution:     -0.85833      -1.63193      -0.41346
Nuclear contribution   :      1.31249       2.44330       0.47777
                        -----------------------------------------
Total Dipole Moment    :      0.45416       0.81138       0.06431
                        -----------------------------------------
Magnitude (a.u.)       :      0.93206
Magnitude (Debye)      :      2.36910

Rotational constants in cm-1:     0.557654     0.043964     0.041802
Rotational constants in MHz : 16718.048909  1318.021932  1253.200377

                             ****ORCA TERMINATED NORMALLY****
TOTAL RUN TIME: 0 days 0 hours 0 minutes 21 seconds 232 msec
