                         Program Version 4.2.0 -  RELEASE  -
|  1> # 12h2o.su.etal.mol1,3,8,9,10,11
|  2> ! MP2 def2-TZVP EnGrad TightSCF
|  3>
|  4> %pal
|  5>     nprocs 6
|  6> end
|  7>
|  8> %maxcore 8000
|  9>
| 10> %scf
| 11>     ConvForced true
| 12> end
| 13>
| 14> *xyz 0 1
| 15> O  -1.794470000  -0.923410000   2.768350000
| 16> H  -2.338250000  -1.359750000   3.430940000
| 17> H  -0.879480000  -1.303000000   2.865760000
| 18> O  -1.752130000  -0.741530000  -2.896280000
| 19> H  -2.036450000  -0.920500000  -1.984040000
| 20> H  -0.921210000  -1.242140000  -2.984230000
| 21> O   1.752130000   0.741530000  -2.896280000
| 22> H   2.036450000   0.920500000  -1.984040000
| 23> H   0.921210000   1.242140000  -2.984230000
| 24> O   0.741530000  -1.752130000   2.896280000
| 25> H   0.920500000  -2.036450000   1.984040000
| 26> H   1.242140000  -0.921210000   2.984230000
| 27> O  -0.923410000   1.794470000  -2.768350000
| 28> H  -1.359750000   2.338250000  -3.430940000
| 29> H  -1.303000000   0.879480000  -2.865760000
| 30> O  -0.741530000   1.752130000   2.896280000
| 31> H  -0.920500000   2.036450000   1.984040000
| 32> H  -1.242140000   0.921210000   2.984230000
| 33> *
| 34>
| 35>                          ****END OF INPUT****

CARTESIAN COORDINATES (ANGSTROEM)
---------------------------------
  O     -1.794470   -0.923410    2.768350
  H     -2.338250   -1.359750    3.430940
  H     -0.879480   -1.303000    2.865760
  O     -1.752130   -0.741530   -2.896280
  H     -2.036450   -0.920500   -1.984040
  H     -0.921210   -1.242140   -2.984230
  O      1.752130    0.741530   -2.896280
  H      2.036450    0.920500   -1.984040
  H      0.921210    1.242140   -2.984230
  O      0.741530   -1.752130    2.896280
  H      0.920500   -2.036450    1.984040
  H      1.242140   -0.921210    2.984230
  O     -0.923410    1.794470   -2.768350
  H     -1.359750    2.338250   -3.430940
  H     -1.303000    0.879480   -2.865760
  O     -0.741530    1.752130    2.896280
  H     -0.920500    2.036450    1.984040
  H     -1.242140    0.921210    2.984230

 Total Charge           Charge          ....    0
 Multiplicity           Mult            ....    1
 Number of Electrons    NEL             ....   60
 Basis Dimension        Dim             ....  258

ORBITAL ENERGIES
----------------

  NO   OCC          E(Eh)            E(eV)
   0   2.0000     -20.608957      -560.7982
   1   2.0000     -20.605558      -560.7057
   2   2.0000     -20.553883      -559.2996
   3   2.0000     -20.549891      -559.1910
   4   2.0000     -20.535121      -558.7891
   5   2.0000     -20.532021      -558.7047
   6   2.0000      -1.394701       -37.9517
   7   2.0000      -1.391317       -37.8597
   8   2.0000      -1.338535       -36.4234
   9   2.0000      -1.334994       -36.3270
  10   2.0000      -1.316316       -35.8188
  11   2.0000      -1.313749       -35.7489
  12   2.0000      -0.751315       -20.4443
  13   2.0000      -0.747862       -20.3503
  14   2.0000      -0.723538       -19.6885
  15   2.0000      -0.719728       -19.5848
  16   2.0000      -0.685628       -18.6569
  17   2.0000      -0.683035       -18.5863
  18   2.0000      -0.633435       -17.2367
  19   2.0000      -0.630132       -17.1468
  20   2.0000      -0.588868       -16.0239
  21   2.0000      -0.586228       -15.9521
  22   2.0000      -0.556956       -15.1555
  23   2.0000      -0.555915       -15.1272
  24   2.0000      -0.535712       -14.5775
  25   2.0000      -0.532621       -14.4933
  26   2.0000      -0.501785       -13.6543
  27   2.0000      -0.498470       -13.5641
  28   2.0000      -0.482812       -13.1380
  29   2.0000      -0.479888       -13.0584
  30   0.0000       0.090198         2.4544
  31   0.0000       0.112170         3.0523
  32   0.0000       0.150279         4.0893
  33   0.0000       0.151739         4.1290
  34   0.0000       0.168391         4.5821

MULLIKEN ATOMIC CHARGES
-----------------------
   0 O :   -0.740007
   1 H :    0.342226
   2 H :    0.376795
   3 O :   -0.685093
   4 H :    0.362597
   5 H :    0.367143
   6 O :   -0.714654
   7 H :    0.325839
   8 H :    0.362827
   9 O :   -0.683600
  10 H :    0.357660
  11 H :    0.371268
  12 O :   -0.738278
  13 H :    0.341888
  14 H :    0.377708
  15 O :   -0.716104
  16 H :    0.331377
  17 H :    0.360407
Sum of atomic charges:   -0.0000000

LOEWDIN ATOMIC CHARGES
----------------------
   0 O :   -0.340967
   1 H :    0.156029
   2 H :    0.144482
   3 O :   -0.269584
   4 H :    0.176697
   5 H :    0.178697
   6 O :   -0.352595
   7 H :    0.158338
   8 H :    0.147280
   9 O :   -0.269205
  10 H :    0.174688
  11 H :    0.180628
  12 O :   -0.339707
  13 H :    0.156066
  14 H :    0.144792
  15 O :   -0.352630
  16 H :    0.160710
  17 H :    0.146283

  Mayer bond orders larger than 0.100000
B(  0-O ,  1-H ) :   0.8480 B(  0-O ,  2-H ) :   0.7668 B(  3-O ,  4-H ) :   0.8343
B(  3-O ,  5-H ) :   0.8276 B(  6-O ,  7-H ) :   0.8598 B(  6-O ,  8-H ) :   0.8045
B(  9-O , 10-H ) :   0.8376 B(  9-O , 11-H ) :   0.8250 B( 12-O , 13-H ) :   0.8481
B( 12-O , 14-H ) :   0.7668 B( 15-O , 16-H ) :   0.8564 B( 15-O , 17-H ) :   0.8079

MP2 TOTAL ENERGY:     -457.919353239 Eh
FINAL SINGLE POINT ENERGY      -457.919353239171

DIPOLE MOMENT
-------------
                                X             Y             Z
Electronic contribution:     -0.00117      -0.34754       0.00530
Nuclear contribution   :     -0.37017      -0.98813       0.00000
                        -----------------------------------------
Total Dipole Moment    :     -0.37133      -1.33567       0.00530
                        -----------------------------------------
Magnitude (a.u.)       :      1.38633
Magnitude (Debye)      :      3.52378

Rotational constants in cm-1:     0.047255     0.015611     0.015529
Rotational constants in MHz :  1416.673339   468.003670   465.550654

                             ****ORCA TERMINATED NORMALLY****
TOTAL RUN TIME: 0 days 0 hours 1 minutes 20 seconds 501 msec
