                         Program Version 3.0.3 - RELEASE   -
|  1> ! B3LYP Def2-TZVP def2-TZVP/J RIJCOSX TightSCF Grid4 D3BJ COSMO
|  2>
|  3> %pal nprocs 12 end
|  4>
|  5> %scf
|  6>         maxiter 400
|  7> end
|  8>
|  9> %cosmo
| 10>         SMD true
| 11>         solvent "WATER"
| 12> end
| 13>
| 14> * xyz  0  1
| 15> O  -1.711932	-0.533135	-0.786512
| 16> H  -0.782401	-0.591552	-1.136591
| 17> H  -2.119157	0.159442	-1.329382
| 18> O  -0.916629	0.553634	1.527858
| 19> H  -1.092474	1.501821	1.423702
| 20> H  -1.299744	0.153605	0.700535
| 21> O  1.682704	0.045171	1.011774
| 22> H  2.153827	0.891700	0.962745
| 23> H  0.760580	0.301318	1.285231
| 24> O  0.902042	-0.591186	-1.481372
| 25> H  1.257037	-0.346156	-0.584301
| 26> H  1.159238	-1.521997	-1.574119
| 27> **                         ****END OF INPUT****

CARTESIAN COORDINATES (ANGSTROEM)
---------------------------------
  O     -1.711932   -0.533135   -0.786512
  H     -0.782401   -0.591552   -1.136591
  H     -2.119157    0.159442   -1.329382
  O     -0.916629    0.553634    1.527858
  H     -1.092474    1.501821    1.423702
  H     -1.299744    0.153605    0.700535
  O      1.682704    0.045171    1.011774
  H      2.153827    0.891700    0.962745
  H      0.760580    0.301318    1.285231
  O      0.902042   -0.591186   -1.481372
  H      1.257037   -0.346156   -0.584301
  H      1.159238   -1.521997   -1.574119

 Total Charge           Charge          ....    0
 Multiplicity           Mult            ....    1
 Number of Electrons    NEL             ....   40
 Basis Dimension        Dim             ....  172

ORBITAL ENERGIES
----------------

  NO   OCC          E(Eh)            E(eV)
   0   2.0000     -19.124467      -520.4032
   1   2.0000     -19.124146      -520.3945
   2   2.0000     -19.122654      -520.3539
   3   2.0000     -19.122582      -520.3519
   4   2.0000      -1.022375       -27.8202
   5   2.0000      -1.006369       -27.3847
   6   2.0000      -1.004047       -27.3215
   7   2.0000      -0.988485       -26.8980
   8   2.0000      -0.533445       -14.5158
   9   2.0000      -0.523360       -14.2413
  10   2.0000      -0.519170       -14.1273
  11   2.0000      -0.516569       -14.0566
  12   2.0000      -0.428423       -11.6580
  13   2.0000      -0.404245       -11.0001
  14   2.0000      -0.402341       -10.9483
  15   2.0000      -0.381999       -10.3947
  16   2.0000      -0.321986        -8.7617
  17   2.0000      -0.321060        -8.7365
  18   2.0000      -0.319511        -8.6943
  19   2.0000      -0.313608        -8.5337
  20   0.0000       0.022583         0.6145
  21   0.0000       0.067273         1.8306
  22   0.0000       0.068797         1.8721
  23   0.0000       0.101509         2.7622
  24   0.0000       0.171756         4.6737

MULLIKEN ATOMIC CHARGES
-----------------------
   0 O :   -0.745642
   1 H :    0.367423
   2 H :    0.379910
   3 O :   -0.753712
   4 H :    0.375992
   5 H :    0.374112
   6 O :   -0.744060
   7 H :    0.379646
   8 H :    0.372891
   9 O :   -0.746479
  10 H :    0.360563
  11 H :    0.379356
Sum of atomic charges:   -0.0000000

LOEWDIN ATOMIC CHARGES
----------------------
   0 O :   -0.318340
   1 H :    0.143466
   2 H :    0.180292
   3 O :   -0.323072
   4 H :    0.178254
   5 H :    0.140604
   6 O :   -0.320318
   7 H :    0.180303
   8 H :    0.143247
   9 O :   -0.324710
  10 H :    0.139994
  11 H :    0.180278

  Mayer bond orders larger than 0.1
B(  0-O ,  1-H ) :   0.7841 B(  0-O ,  2-H ) :   0.8608 B(  0-O ,  5-H ) :   0.1387
B(  1-H ,  9-O ) :   0.1373 B(  3-O ,  4-H ) :   0.8633 B(  3-O ,  5-H ) :   0.7781
B(  3-O ,  8-H ) :   0.1304 B(  6-O ,  7-H ) :   0.8612 B(  6-O ,  8-H ) :   0.7845
B(  6-O , 10-H ) :   0.1511 B(  9-O , 10-H ) :   0.7787 B(  9-O , 11-H ) :   0.8622

Dispersion correction           -0.008146642
FINAL SINGLE POINT ENERGY      -305.782384500558

DIPOLE MOMENT
-------------
                                X             Y             Z
Electronic contribution:     -0.00239      -0.00913      -0.00020
Nuclear contribution   :      0.10366       1.33112      -0.66229
                        -----------------------------------------
Total Dipole Moment    :      0.10127       1.32199      -0.66249
                        -----------------------------------------
Magnitude (a.u.)       :      1.48216
Magnitude (Debye)      :      3.76735

                             ****ORCA TERMINATED NORMALLY****
TOTAL RUN TIME: 0 days 0 hours 0 minutes 53 seconds 172 msec
