                         Program Version 3.0.3 - RELEASE   -
|  1> ! wB97X-D3 MA-Def2-TZVP def2-TZVP/J RIJCOSX TightSCF Grid4
|  2>
|  3> %pal nprocs 1 end
|  4>
|  5> %scf
|  6>         maxiter 400
|  7> end
|  8>
|  9> %cosmo
| 10>         SMD true
| 11>         solvent "WATER"
| 12> end
| 13>
| 14> * xyz  0  1
| 15> O  -1.711932	-0.533135	-0.786512
| 16> H  -0.782401	-0.591552	-1.136591
| 17> H  -2.119157	0.159442	-1.329382
| 18> O  -0.916629	0.553634	1.527858
| 19> H  -1.092474	1.501821	1.423702
| 20> H  -1.299744	0.153605	0.700535
| 21> O  1.682704	0.045171	1.011774
| 22> H  2.153827	0.891700	0.962745
| 23> H  0.760580	0.301318	1.285231
| 24> O  0.902042	-0.591186	-1.481372
| 25> H  1.257037	-0.346156	-0.584301
| 26> H  1.159238	-1.521997	-1.574119
| 27> **                         ****END OF INPUT****

CARTESIAN COORDINATES (ANGSTROEM)
---------------------------------
  O     -1.711932   -0.533135   -0.786512
  H     -0.782401   -0.591552   -1.136591
  H     -2.119157    0.159442   -1.329382
  O     -0.916629    0.553634    1.527858
  H     -1.092474    1.501821    1.423702
  H     -1.299744    0.153605    0.700535
  O      1.682704    0.045171    1.011774
  H      2.153827    0.891700    0.962745
  H      0.760580    0.301318    1.285231
  O      0.902042   -0.591186   -1.481372
  H      1.257037   -0.346156   -0.584301
  H      1.159238   -1.521997   -1.574119

 Total Charge           Charge          ....    0
 Multiplicity           Mult            ....    1
 Number of Electrons    NEL             ....   40
 Basis Dimension        Dim             ....  188

ORBITAL ENERGIES
----------------

  NO   OCC          E(Eh)            E(eV)
   0   2.0000     -19.235456      -523.4234
   1   2.0000     -19.235159      -523.4153
   2   2.0000     -19.233973      -523.3830
   3   2.0000     -19.233704      -523.3757
   4   2.0000      -1.140876       -31.0448
   5   2.0000      -1.124308       -30.5940
   6   2.0000      -1.122055       -30.5327
   7   2.0000      -1.106033       -30.0967
   8   2.0000      -0.639281       -17.3957
   9   2.0000      -0.628388       -17.0993
  10   2.0000      -0.624085       -16.9822
  11   2.0000      -0.621859       -16.9216
  12   2.0000      -0.533749       -14.5241
  13   2.0000      -0.508656       -13.8412
  14   2.0000      -0.506519       -13.7831
  15   2.0000      -0.485939       -13.2231
  16   2.0000      -0.423501       -11.5241
  17   2.0000      -0.422359       -11.4930
  18   2.0000      -0.421024       -11.4566
  19   2.0000      -0.415014       -11.2931
  20   0.0000       0.073833         2.0091
  21   0.0000       0.110367         3.0032
  22   0.0000       0.112105         3.0505
  23   0.0000       0.132378         3.6022
  24   0.0000       0.143681         3.9098

MULLIKEN ATOMIC CHARGES
-----------------------
   0 O :   -0.787068
   1 H :    0.390372
   2 H :    0.409686
   3 O :   -0.847785
   4 H :    0.413144
   5 H :    0.409766
   6 O :   -0.790726
   7 H :    0.410211
   8 H :    0.404661
   9 O :   -0.800456
  10 H :    0.381636
  11 H :    0.406559
Sum of atomic charges:   -0.0000000

LOEWDIN ATOMIC CHARGES
----------------------
   0 O :   -0.395268
   1 H :    0.189163
   2 H :    0.211709
   3 O :   -0.401924
   4 H :    0.210858
   5 H :    0.186454
   6 O :   -0.397355
   7 H :    0.211622
   8 H :    0.189254
   9 O :   -0.401838
  10 H :    0.185767
  11 H :    0.211559

  Mayer bond orders larger than 0.1
B(  0-O ,  1-H ) :   0.7960 B(  0-O ,  2-H ) :   0.8499 B(  3-O ,  4-H ) :   0.8516
B(  3-O ,  5-H ) :   0.7858 B(  6-O ,  7-H ) :   0.8497 B(  6-O ,  8-H ) :   0.7936
B(  9-O , 10-H ) :   0.7903 B(  9-O , 11-H ) :   0.8507

Dispersion correction           -0.003063893
FINAL SINGLE POINT ENERGY      -305.832241761788

DIPOLE MOMENT
-------------
                                X             Y             Z
Electronic contribution:     -0.00309       0.00973      -0.00972
Nuclear contribution   :      0.10366       1.33112      -0.66229
                        -----------------------------------------
Total Dipole Moment    :      0.10056       1.34086      -0.67201
                        -----------------------------------------
Magnitude (a.u.)       :      1.50320
Magnitude (Debye)      :      3.82083

                             ****ORCA TERMINATED NORMALLY****
TOTAL RUN TIME: 0 days 0 hours 1 minutes 11 seconds 947 msec
