                         Program Version 4.2.0 -  RELEASE  -
|  1> # 12h2o.su.etal.mol1,2,5,6,8,9,10
|  2> ! MP2 def2-TZVP EnGrad TightSCF
|  3>
|  4> %pal
|  5>     nprocs 6
|  6> end
|  7>
|  8> %maxcore 8000
|  9>
| 10> %scf
| 11>     ConvForced true
| 12> end
| 13>
| 14> *xyz 0 1
| 15> O  -1.794470000  -0.923410000   2.768350000
| 16> H  -2.338250000  -1.359750000   3.430940000
| 17> H  -0.879480000  -1.303000000   2.865760000
| 18> O   0.923410000  -1.794470000  -2.768350000
| 19> H   1.359750000  -2.338250000  -3.430940000
| 20> H   1.303000000  -0.879480000  -2.865760000
| 21> O   0.885520000  -1.737840000   0.052730000
| 22> H   1.284090000  -0.839590000   0.017130000
| 23> H   1.032320000  -2.090180000  -0.841890000
| 24> O   1.737840000   0.885520000  -0.052730000
| 25> H   2.090180000   1.032320000   0.841890000
| 26> H   0.839590000   1.284090000  -0.017130000
| 27> O   1.752130000   0.741530000  -2.896280000
| 28> H   2.036450000   0.920500000  -1.984040000
| 29> H   0.921210000   1.242140000  -2.984230000
| 30> O   0.741530000  -1.752130000   2.896280000
| 31> H   0.920500000  -2.036450000   1.984040000
| 32> H   1.242140000  -0.921210000   2.984230000
| 33> O  -0.923410000   1.794470000  -2.768350000
| 34> H  -1.359750000   2.338250000  -3.430940000
| 35> H  -1.303000000   0.879480000  -2.865760000
| 36> *
| 37>
| 38>                          ****END OF INPUT****

CARTESIAN COORDINATES (ANGSTROEM)
---------------------------------
  O     -1.794470   -0.923410    2.768350
  H     -2.338250   -1.359750    3.430940
  H     -0.879480   -1.303000    2.865760
  O      0.923410   -1.794470   -2.768350
  H      1.359750   -2.338250   -3.430940
  H      1.303000   -0.879480   -2.865760
  O      0.885520   -1.737840    0.052730
  H      1.284090   -0.839590    0.017130
  H      1.032320   -2.090180   -0.841890
  O      1.737840    0.885520   -0.052730
  H      2.090180    1.032320    0.841890
  H      0.839590    1.284090   -0.017130
  O      1.752130    0.741530   -2.896280
  H      2.036450    0.920500   -1.984040
  H      0.921210    1.242140   -2.984230
  O      0.741530   -1.752130    2.896280
  H      0.920500   -2.036450    1.984040
  H      1.242140   -0.921210    2.984230
  O     -0.923410    1.794470   -2.768350
  H     -1.359750    2.338250   -3.430940
  H     -1.303000    0.879480   -2.865760

 Total Charge           Charge          ....    0
 Multiplicity           Mult            ....    1
 Number of Electrons    NEL             ....   70
 Basis Dimension        Dim             ....  301

ORBITAL ENERGIES
----------------

  NO   OCC          E(Eh)            E(eV)
   0   2.0000     -20.622511      -561.1670
   1   2.0000     -20.601012      -560.5820
   2   2.0000     -20.561765      -559.5141
   3   2.0000     -20.559370      -559.4489
   4   2.0000     -20.538410      -558.8786
   5   2.0000     -20.524152      -558.4906
   6   2.0000     -20.500797      -557.8551
   7   2.0000      -1.405640       -38.2494
   8   2.0000      -1.379229       -37.5307
   9   2.0000      -1.353995       -36.8441
  10   2.0000      -1.348890       -36.7052
  11   2.0000      -1.323074       -36.0027
  12   2.0000      -1.307612       -35.5819
  13   2.0000      -1.282897       -34.9094
  14   2.0000      -0.764270       -20.7969
  15   2.0000      -0.746595       -20.3159
  16   2.0000      -0.720503       -19.6059
  17   2.0000      -0.710954       -19.3461
  18   2.0000      -0.704925       -19.1820
  19   2.0000      -0.692299       -18.8384
  20   2.0000      -0.671042       -18.2600
  21   2.0000      -0.650258       -17.6944
  22   2.0000      -0.619091       -16.8463
  23   2.0000      -0.599364       -16.3095
  24   2.0000      -0.592941       -16.1347
  25   2.0000      -0.580036       -15.7836
  26   2.0000      -0.555957       -15.1284
  27   2.0000      -0.539571       -14.6825
  28   2.0000      -0.538585       -14.6556
  29   2.0000      -0.528186       -14.3727
  30   2.0000      -0.503143       -13.6912
  31   2.0000      -0.489695       -13.3253
  32   2.0000      -0.486323       -13.2335
  33   2.0000      -0.475081       -12.9276
  34   2.0000      -0.451300       -12.2805
  35   0.0000       0.082608         2.2479
  36   0.0000       0.108153         2.9430
  37   0.0000       0.153457         4.1758
  38   0.0000       0.162610         4.4249
  39   0.0000       0.176486         4.8024

MULLIKEN ATOMIC CHARGES
-----------------------
   0 O :   -0.737696
   1 H :    0.319636
   2 H :    0.369946
   3 O :   -0.741301
   4 H :    0.334240
   5 H :    0.369338
   6 O :   -0.740212
   7 H :    0.333261
   8 H :    0.375342
   9 O :   -0.712245
  10 H :    0.363110
  11 H :    0.383807
  12 O :   -0.714107
  13 H :    0.380621
  14 H :    0.366230
  15 O :   -0.690103
  16 H :    0.392349
  17 H :    0.323116
  18 O :   -0.709587
  19 H :    0.359357
  20 H :    0.374899
Sum of atomic charges:   -0.0000000

LOEWDIN ATOMIC CHARGES
----------------------
   0 O :   -0.375962
   1 H :    0.145645
   2 H :    0.142582
   3 O :   -0.343938
   4 H :    0.152394
   5 H :    0.142578
   6 O :   -0.346318
   7 H :    0.134202
   8 H :    0.151973
   9 O :   -0.276893
  10 H :    0.174630
  11 H :    0.189998
  12 O :   -0.284410
  13 H :    0.154833
  14 H :    0.149801
  15 O :   -0.278207
  16 H :    0.160314
  17 H :    0.159163
  18 O :   -0.313497
  19 H :    0.167075
  20 H :    0.194035

  Mayer bond orders larger than 0.100000
B(  0-O ,  1-H ) :   0.8637 B(  0-O ,  2-H ) :   0.7794 B(  3-O ,  4-H ) :   0.8519
B(  3-O ,  5-H ) :   0.7543 B(  5-H , 12-O ) :   0.1078 B(  6-O ,  7-H ) :   0.8081
B(  6-O ,  8-H ) :   0.8027 B(  9-O , 10-H ) :   0.8321 B(  9-O , 11-H ) :   0.8140
B( 12-O , 13-H ) :   0.8140 B( 12-O , 14-H ) :   0.8035 B( 15-O , 16-H ) :   0.7855
B( 15-O , 17-H ) :   0.8569 B( 18-O , 19-H ) :   0.8379 B( 18-O , 20-H ) :   0.8197

MP2 TOTAL ENERGY:     -534.249480817 Eh
FINAL SINGLE POINT ENERGY      -534.249480817208

DIPOLE MOMENT
-------------
                                X             Y             Z
Electronic contribution:      0.14702       0.28336      -0.29127
Nuclear contribution   :      0.41922       1.24981      -0.63259
                        -----------------------------------------
Total Dipole Moment    :      0.56624       1.53318      -0.92387
                        -----------------------------------------
Magnitude (a.u.)       :      1.87744
Magnitude (Debye)      :      4.77208

Rotational constants in cm-1:     0.047580     0.018204     0.016556
Rotational constants in MHz :  1426.410029   545.731288   496.331539

                             ****ORCA TERMINATED NORMALLY****
TOTAL RUN TIME: 0 days 0 hours 1 minutes 50 seconds 680 msec
