                         Program Version 4.2.0 -  RELEASE  -
|  1> # 12mecn.remya.etal.2.mol3,5,6
|  2> ! MP2 def2-TZVP EnGrad TightSCF
|  3>
|  4> %pal
|  5>     nprocs 6
|  6> end
|  7>
|  8> %maxcore 8000
|  9>
| 10> %scf
| 11>     ConvForced true
| 12> end
| 13>
| 14> *xyz 0 1
| 15> C  -5.181310000   2.853865000  -1.626100000
| 16> H  -5.488260000   3.811434000  -2.053310000
| 17> H  -5.857590000   2.068112000  -1.968630000
| 18> H  -4.170750000   2.611402000  -1.966640000
| 19> C  -5.187260000   2.919160000  -0.181450000
| 20> N  -5.181700000   2.970641000   0.983640000
| 21> C  -1.955700000   2.515080000   1.698463000
| 22> H  -2.923830000   2.883163000   2.049269000
| 23> H  -1.154850000   3.171830000   2.050990000
| 24> H  -1.790380000   1.506115000   2.087896000
| 25> C  -1.948230000   2.482156000   0.253672000
| 26> N  -1.937550000   2.462523000  -0.913150000
| 27> C   5.300864000  -2.920090000   1.401103000
| 28> H   5.986071000  -2.139770000   1.737487000
| 29> H   5.636642000  -3.888750000   1.778233000
| 30> H   4.307359000  -2.697240000   1.799307000
| 31> C   5.234791000  -2.933140000  -0.043290000
| 32> N   5.170868000  -2.941760000  -1.207750000
| 33> *
| 34>
| 35>                          ****END OF INPUT****

CARTESIAN COORDINATES (ANGSTROEM)
---------------------------------
  C     -5.181310    2.853865   -1.626100
  H     -5.488260    3.811434   -2.053310
  H     -5.857590    2.068112   -1.968630
  H     -4.170750    2.611402   -1.966640
  C     -5.187260    2.919160   -0.181450
  N     -5.181700    2.970641    0.983640
  C     -1.955700    2.515080    1.698463
  H     -2.923830    2.883163    2.049269
  H     -1.154850    3.171830    2.050990
  H     -1.790380    1.506115    2.087896
  C     -1.948230    2.482156    0.253672
  N     -1.937550    2.462523   -0.913150
  C      5.300864   -2.920090    1.401103
  H      5.986071   -2.139770    1.737487
  H      5.636642   -3.888750    1.778233
  H      4.307359   -2.697240    1.799307
  C      5.234791   -2.933140   -0.043290
  N      5.170868   -2.941760   -1.207750

 Total Charge           Charge          ....    0
 Multiplicity           Mult            ....    1
 Number of Electrons    NEL             ....   66
 Basis Dimension        Dim             ....  333

ORBITAL ENERGIES
----------------

  NO   OCC          E(Eh)            E(eV)
   0   2.0000     -15.573284      -423.7706
   1   2.0000     -15.571448      -423.7206
   2   2.0000     -15.571433      -423.7202
   3   2.0000     -11.285374      -307.0906
   4   2.0000     -11.283421      -307.0375
   5   2.0000     -11.283257      -307.0330
   6   2.0000     -11.280131      -306.9480
   7   2.0000     -11.272798      -306.7484
   8   2.0000     -11.271114      -306.7026
   9   2.0000      -1.218526       -33.1578
  10   2.0000      -1.214826       -33.0571
  11   2.0000      -1.214253       -33.0415
  12   2.0000      -1.044305       -28.4170
  13   2.0000      -1.036704       -28.2102
  14   2.0000      -1.033648       -28.1270
  15   2.0000      -0.701641       -19.0926
  16   2.0000      -0.695651       -18.9296
  17   2.0000      -0.691127       -18.8065
  18   2.0000      -0.633351       -17.2343
  19   2.0000      -0.631172       -17.1751
  20   2.0000      -0.630624       -17.1602
  21   2.0000      -0.623338       -16.9619
  22   2.0000      -0.621546       -16.9131
  23   2.0000      -0.613988       -16.7075
  24   2.0000      -0.559508       -15.2250
  25   2.0000      -0.556151       -15.1336
  26   2.0000      -0.555992       -15.1293
  27   2.0000      -0.460603       -12.5337
  28   2.0000      -0.459235       -12.4964
  29   2.0000      -0.458210       -12.4685
  30   2.0000      -0.457632       -12.4528
  31   2.0000      -0.457154       -12.4398
  32   2.0000      -0.456128       -12.4119
  33   0.0000       0.118440         3.2229
  34   0.0000       0.127914         3.4807
  35   0.0000       0.142156         3.8683
  36   0.0000       0.169238         4.6052
  37   0.0000       0.170874         4.6497

MULLIKEN ATOMIC CHARGES
-----------------------
   0 C :   -0.287122
   1 H :    0.166687
   2 H :    0.166299
   3 H :    0.206868
   4 C :   -0.101955
   5 N :   -0.150788
   6 C :   -0.285200
   7 H :    0.205498
   8 H :    0.166596
   9 H :    0.165464
  10 C :   -0.101599
  11 N :   -0.150747
  12 C :   -0.280758
  13 H :    0.172067
  14 H :    0.172508
  15 H :    0.171176
  16 C :   -0.145626
  17 N :   -0.089366
Sum of atomic charges:    0.0000000

LOEWDIN ATOMIC CHARGES
----------------------
   0 C :   -0.282153
   1 H :    0.151340
   2 H :    0.150655
   3 H :    0.157542
   4 C :   -0.206692
   5 N :    0.029569
   6 C :   -0.282838
   7 H :    0.156900
   8 H :    0.151032
   9 H :    0.152476
  10 C :   -0.208099
  11 N :    0.030268
  12 C :   -0.284114
  13 H :    0.151456
  14 H :    0.151373
  15 H :    0.152737
  16 C :   -0.219024
  17 N :    0.047572

  Mayer bond orders larger than 0.100000
B(  0-C ,  1-H ) :   0.9145 B(  0-C ,  2-H ) :   0.9161 B(  0-C ,  3-H ) :   0.9011
B(  0-C ,  4-C ) :   0.9024 B(  4-C ,  5-N ) :   2.7721 B(  6-C ,  7-H ) :   0.9012
B(  6-C ,  8-H ) :   0.9165 B(  6-C ,  9-H ) :   0.9151 B(  6-C , 10-C ) :   0.9012
B( 10-C , 11-N ) :   2.7683 B( 12-C , 13-H ) :   0.9170 B( 12-C , 14-H ) :   0.9161
B( 12-C , 15-H ) :   0.9171 B( 12-C , 16-C ) :   0.9027 B( 16-C , 17-N ) :   2.8362

MP2 TOTAL ENERGY:     -397.459097200 Eh
FINAL SINGLE POINT ENERGY      -397.459097200121

DIPOLE MOMENT
-------------
                                X             Y             Z
Electronic contribution:     -0.13955       0.05016      -3.12908
Nuclear contribution   :      0.20656      -0.07426       4.64023
                        -----------------------------------------
Total Dipole Moment    :      0.06701      -0.02409       1.51115
                        -----------------------------------------
Magnitude (a.u.)       :      1.51283
Magnitude (Debye)      :      3.84530

Rotational constants in cm-1:     0.079765     0.005245     0.005033
Rotational constants in MHz :  2391.290779   157.250051   150.876549

                             ****ORCA TERMINATED NORMALLY****
TOTAL RUN TIME: 0 days 0 hours 4 minutes 26 seconds 723 msec
