                         Program Version 4.2.0 -  RELEASE  -
|  1> # 12h2o.su.etal.mol0,6
|  2> ! MP2 def2-TZVP EnGrad TightSCF
|  3>
|  4> %pal
|  5>     nprocs 6
|  6> end
|  7>
|  8> %maxcore 8000
|  9>
| 10> %scf
| 11>     ConvForced true
| 12> end
| 13>
| 14> *xyz 0 1
| 15> O   1.794470000   0.923410000   2.768350000
| 16> H   2.338250000   1.359750000   3.430940000
| 17> H   0.879480000   1.303000000   2.865760000
| 18> O   1.737840000   0.885520000  -0.052730000
| 19> H   2.090180000   1.032320000   0.841890000
| 20> H   0.839590000   1.284090000  -0.017130000
| 21> *
| 22>
| 23>                          ****END OF INPUT****

CARTESIAN COORDINATES (ANGSTROEM)
---------------------------------
  O      1.794470    0.923410    2.768350
  H      2.338250    1.359750    3.430940
  H      0.879480    1.303000    2.865760
  O      1.737840    0.885520   -0.052730
  H      2.090180    1.032320    0.841890
  H      0.839590    1.284090   -0.017130

 Total Charge           Charge          ....    0
 Multiplicity           Mult            ....    1
 Number of Electrons    NEL             ....   20
 Basis Dimension        Dim             ....   86

ORBITAL ENERGIES
----------------

  NO   OCC          E(Eh)            E(eV)
   0   2.0000     -20.592071      -560.3387
   1   2.0000     -20.531516      -558.6909
   2   2.0000      -1.369867       -37.2760
   3   2.0000      -1.310504       -35.6606
   4   2.0000      -0.736805       -20.0495
   5   2.0000      -0.680400       -18.5146
   6   2.0000      -0.606381       -16.5005
   7   2.0000      -0.559287       -15.2190
   8   2.0000      -0.524647       -14.2764
   9   2.0000      -0.476975       -12.9792
  10   0.0000       0.102203         2.7811
  11   0.0000       0.161337         4.3902
  12   0.0000       0.193269         5.2591
  13   0.0000       0.269547         7.3347
  14   0.0000       0.494021        13.4430

MULLIKEN ATOMIC CHARGES
-----------------------
   0 O :   -0.688979
   1 H :    0.350825
   2 H :    0.348603
   3 O :   -0.689471
   4 H :    0.364765
   5 H :    0.314257
Sum of atomic charges:    0.0000000

LOEWDIN ATOMIC CHARGES
----------------------
   0 O :   -0.308920
   1 H :    0.162717
   2 H :    0.183099
   3 O :   -0.345939
   4 H :    0.148433
   5 H :    0.160611

  Mayer bond orders larger than 0.100000
B(  0-O ,  1-H ) :   0.8424 B(  0-O ,  2-H ) :   0.8381 B(  3-O ,  4-H ) :   0.8219
B(  3-O ,  5-H ) :   0.8639

MP2 TOTAL ENERGY:     -152.629523144 Eh
FINAL SINGLE POINT ENERGY      -152.629523144425

DIPOLE MOMENT
-------------
                                X             Y             Z
Electronic contribution:      0.17244      -0.20847      -0.03825
Nuclear contribution   :     -0.76337       1.13309       1.40687
                        -----------------------------------------
Total Dipole Moment    :     -0.59093       0.92462       1.36863
                        -----------------------------------------
Magnitude (a.u.)       :      1.75421
Magnitude (Debye)      :      4.45886

Rotational constants in cm-1:     6.827193     0.231418     0.225913
Rotational constants in MHz : 204674.101465  6937.727343  6772.698356

                             ****ORCA TERMINATED NORMALLY****
TOTAL RUN TIME: 0 days 0 hours 0 minutes 8 seconds 790 msec
