                         Program Version 4.2.0 -  RELEASE  -
|  1> # 12mecn.remya.etal.2.mol0,6,8
|  2> ! MP2 def2-TZVP EnGrad TightSCF
|  3>
|  4> %pal
|  5>     nprocs 6
|  6> end
|  7>
|  8> %maxcore 8000
|  9>
| 10> %scf
| 11>     ConvForced true
| 12> end
| 13>
| 14> *xyz 0 1
| 15> C  -0.869520000  -3.929380000   1.700199000
| 16> H  -0.057420000  -3.268850000   2.015352000
| 17> H  -0.697530000  -4.930670000   2.101524000
| 18> H  -1.821490000  -3.546590000   2.077146000
| 19> C  -0.916080000  -3.969960000   0.256749000
| 20> N  -0.955390000  -3.995980000  -0.909290000
| 21> C   5.300864000  -2.920090000   1.401103000
| 22> H   5.986071000  -2.139770000   1.737487000
| 23> H   5.636642000  -3.888750000   1.778233000
| 24> H   4.307359000  -2.697240000   1.799307000
| 25> C   5.234791000  -2.933140000  -0.043290000
| 26> N   5.170868000  -2.941760000  -1.207750000
| 27> C   1.912641000  -2.468050000  -1.750510000
| 28> H   2.876947000  -2.793500000  -2.151200000
| 29> H   1.688016000  -1.463720000  -2.122170000
| 30> H   1.123460000  -3.154780000  -2.069590000
| 31> C   1.977850000  -2.444240000  -0.306900000
| 32> N   2.036566000  -2.426130000   0.858249000
| 33> *
| 34>
| 35>                          ****END OF INPUT****

CARTESIAN COORDINATES (ANGSTROEM)
---------------------------------
  C     -0.869520   -3.929380    1.700199
  H     -0.057420   -3.268850    2.015352
  H     -0.697530   -4.930670    2.101524
  H     -1.821490   -3.546590    2.077146
  C     -0.916080   -3.969960    0.256749
  N     -0.955390   -3.995980   -0.909290
  C      5.300864   -2.920090    1.401103
  H      5.986071   -2.139770    1.737487
  H      5.636642   -3.888750    1.778233
  H      4.307359   -2.697240    1.799307
  C      5.234791   -2.933140   -0.043290
  N      5.170868   -2.941760   -1.207750
  C      1.912641   -2.468050   -1.750510
  H      2.876947   -2.793500   -2.151200
  H      1.688016   -1.463720   -2.122170
  H      1.123460   -3.154780   -2.069590
  C      1.977850   -2.444240   -0.306900
  N      2.036566   -2.426130    0.858249

 Total Charge           Charge          ....    0
 Multiplicity           Mult            ....    1
 Number of Electrons    NEL             ....   66
 Basis Dimension        Dim             ....  333

ORBITAL ENERGIES
----------------

  NO   OCC          E(Eh)            E(eV)
   0   2.0000     -15.571160      -423.7128
   1   2.0000     -15.570957      -423.7073
   2   2.0000     -15.569331      -423.6630
   3   2.0000     -11.285807      -307.1024
   4   2.0000     -11.282416      -307.0102
   5   2.0000     -11.282370      -307.0089
   6   2.0000     -11.273539      -306.7686
   7   2.0000     -11.272477      -306.7397
   8   2.0000     -11.258926      -306.3709
   9   2.0000      -1.219716       -33.1902
  10   2.0000      -1.215679       -33.0803
  11   2.0000      -1.213636       -33.0247
  12   2.0000      -1.036841       -28.2139
  13   2.0000      -1.035857       -28.1871
  14   2.0000      -1.025887       -27.9158
  15   2.0000      -0.695371       -18.9220
  16   2.0000      -0.694181       -18.8896
  17   2.0000      -0.684257       -18.6196
  18   2.0000      -0.630968       -17.1695
  19   2.0000      -0.625397       -17.0179
  20   2.0000      -0.623940       -16.9783
  21   2.0000      -0.623487       -16.9659
  22   2.0000      -0.610937       -16.6244
  23   2.0000      -0.607218       -16.5233
  24   2.0000      -0.561321       -15.2743
  25   2.0000      -0.555901       -15.1268
  26   2.0000      -0.555376       -15.1125
  27   2.0000      -0.460493       -12.5307
  28   2.0000      -0.459077       -12.4921
  29   2.0000      -0.458422       -12.4743
  30   2.0000      -0.457735       -12.4556
  31   2.0000      -0.456483       -12.4215
  32   2.0000      -0.454782       -12.3753
  33   0.0000       0.126776         3.4497
  34   0.0000       0.136904         3.7254
  35   0.0000       0.155967         4.2441
  36   0.0000       0.168348         4.5810
  37   0.0000       0.172191         4.6856

MULLIKEN ATOMIC CHARGES
-----------------------
   0 C :   -0.285787
   1 H :    0.200193
   2 H :    0.166593
   3 H :    0.167531
   4 C :   -0.104738
   5 N :   -0.143923
   6 C :   -0.287843
   7 H :    0.166757
   8 H :    0.166205
   9 H :    0.201697
  10 C :   -0.102328
  11 N :   -0.145004
  12 C :   -0.289124
  13 H :    0.202037
  14 H :    0.161047
  15 H :    0.199689
  16 C :   -0.048886
  17 N :   -0.224117
Sum of atomic charges:   -0.0000000

LOEWDIN ATOMIC CHARGES
----------------------
   0 C :   -0.282988
   1 H :    0.155647
   2 H :    0.151505
   3 H :    0.151493
   4 C :   -0.209146
   5 N :    0.033442
   6 C :   -0.283436
   7 H :    0.150699
   8 H :    0.150558
   9 H :    0.155736
  10 C :   -0.207598
  11 N :    0.033571
  12 C :   -0.280469
  13 H :    0.156040
  14 H :    0.153298
  15 H :    0.156014
  16 C :   -0.197305
  17 N :    0.012941

  Mayer bond orders larger than 0.100000
B(  0-C ,  1-H ) :   0.9039 B(  0-C ,  2-H ) :   0.9153 B(  0-C ,  3-H ) :   0.9164
B(  0-C ,  4-C ) :   0.9015 B(  4-C ,  5-N ) :   2.7740 B(  6-C ,  7-H ) :   0.9161
B(  6-C ,  8-H ) :   0.9153 B(  6-C ,  9-H ) :   0.9030 B(  6-C , 10-C ) :   0.9029
B( 10-C , 11-N ) :   2.7709 B( 12-C , 13-H ) :   0.9019 B( 12-C , 14-H ) :   0.9108
B( 12-C , 15-H ) :   0.9025 B( 12-C , 16-C ) :   0.9006 B( 16-C , 17-N ) :   2.6908

MP2 TOTAL ENERGY:     -397.468020836 Eh
FINAL SINGLE POINT ENERGY      -397.468020836408

DIPOLE MOMENT
-------------
                                X             Y             Z
Electronic contribution:     -0.09056      -0.09615      -3.17865
Nuclear contribution   :      0.13586       0.12863       4.65584
                        -----------------------------------------
Total Dipole Moment    :      0.04531       0.03248       1.47719
                        -----------------------------------------
Magnitude (a.u.)       :      1.47824
Magnitude (Debye)      :      3.75739

Rotational constants in cm-1:     0.081481     0.020178     0.017184
Rotational constants in MHz :  2442.738090   604.922273   515.172758

                             ****ORCA TERMINATED NORMALLY****
TOTAL RUN TIME: 0 days 0 hours 4 minutes 5 seconds 540 msec
