                         Program Version 4.2.0 -  RELEASE  -
|  1> # 12h2o.su.etal.mol5,6,8,10
|  2> ! MP2 def2-TZVP EnGrad TightSCF
|  3>
|  4> %pal
|  5>     nprocs 6
|  6> end
|  7>
|  8> %maxcore 8000
|  9>
| 10> %scf
| 11>     ConvForced true
| 12> end
| 13>
| 14> *xyz 0 1
| 15> O   0.885520000  -1.737840000   0.052730000
| 16> H   1.284090000  -0.839590000   0.017130000
| 17> H   1.032320000  -2.090180000  -0.841890000
| 18> O   1.737840000   0.885520000  -0.052730000
| 19> H   2.090180000   1.032320000   0.841890000
| 20> H   0.839590000   1.284090000  -0.017130000
| 21> O   1.752130000   0.741530000  -2.896280000
| 22> H   2.036450000   0.920500000  -1.984040000
| 23> H   0.921210000   1.242140000  -2.984230000
| 24> O  -0.923410000   1.794470000  -2.768350000
| 25> H  -1.359750000   2.338250000  -3.430940000
| 26> H  -1.303000000   0.879480000  -2.865760000
| 27> *
| 28>
| 29>                          ****END OF INPUT****

CARTESIAN COORDINATES (ANGSTROEM)
---------------------------------
  O      0.885520   -1.737840    0.052730
  H      1.284090   -0.839590    0.017130
  H      1.032320   -2.090180   -0.841890
  O      1.737840    0.885520   -0.052730
  H      2.090180    1.032320    0.841890
  H      0.839590    1.284090   -0.017130
  O      1.752130    0.741530   -2.896280
  H      2.036450    0.920500   -1.984040
  H      0.921210    1.242140   -2.984230
  O     -0.923410    1.794470   -2.768350
  H     -1.359750    2.338250   -3.430940
  H     -1.303000    0.879480   -2.865760

 Total Charge           Charge          ....    0
 Multiplicity           Mult            ....    1
 Number of Electrons    NEL             ....   40
 Basis Dimension        Dim             ....  172

ORBITAL ENERGIES
----------------

  NO   OCC          E(Eh)            E(eV)
   0   2.0000     -20.608957      -560.7982
   1   2.0000     -20.596115      -560.4488
   2   2.0000     -20.525365      -558.5236
   3   2.0000     -20.517151      -558.3001
   4   2.0000      -1.391785       -37.8724
   5   2.0000      -1.373730       -37.3811
   6   2.0000      -1.306701       -35.5571
   7   2.0000      -1.302413       -35.4405
   8   2.0000      -0.749893       -20.4056
   9   2.0000      -0.740873       -20.1602
  10   2.0000      -0.687802       -18.7161
  11   2.0000      -0.680151       -18.5079
  12   2.0000      -0.630600       -17.1595
  13   2.0000      -0.608407       -16.5556
  14   2.0000      -0.571927       -15.5629
  15   2.0000      -0.549216       -14.9449
  16   2.0000      -0.527890       -14.3646
  17   2.0000      -0.522716       -14.2238
  18   2.0000      -0.473862       -12.8944
  19   2.0000      -0.466584       -12.6964
  20   0.0000       0.095996         2.6122
  21   0.0000       0.121766         3.3134
  22   0.0000       0.168801         4.5933
  23   0.0000       0.187937         5.1140
  24   0.0000       0.196162         5.3378

MULLIKEN ATOMIC CHARGES
-----------------------
   0 O :   -0.718296
   1 H :    0.351937
   2 H :    0.334290
   3 O :   -0.706552
   4 H :    0.365477
   5 H :    0.370132
   6 O :   -0.721946
   7 H :    0.361692
   8 H :    0.343832
   9 O :   -0.701285
  10 H :    0.356578
  11 H :    0.364142
Sum of atomic charges:    0.0000000

LOEWDIN ATOMIC CHARGES
----------------------
   0 O :   -0.362778
   1 H :    0.139541
   2 H :    0.160575
   3 O :   -0.275919
   4 H :    0.176321
   5 H :    0.184069
   6 O :   -0.351682
   7 H :    0.147024
   8 H :    0.141488
   9 O :   -0.313562
  10 H :    0.165282
  11 H :    0.189641

  Mayer bond orders larger than 0.100000
B(  0-O ,  1-H ) :   0.8107 B(  0-O ,  2-H ) :   0.8541 B(  3-O ,  4-H ) :   0.8303
B(  3-O ,  5-H ) :   0.8228 B(  6-O ,  7-H ) :   0.8323 B(  6-O ,  8-H ) :   0.8286
B(  9-O , 10-H ) :   0.8395 B(  9-O , 11-H ) :   0.8280

MP2 TOTAL ENERGY:     -305.272588984 Eh
FINAL SINGLE POINT ENERGY      -305.272588983934

DIPOLE MOMENT
-------------
                                X             Y             Z
Electronic contribution:      0.07589       0.12223       0.07768
Nuclear contribution   :     -1.13457       1.16501       0.05351
                        -----------------------------------------
Total Dipole Moment    :     -1.05868       1.28724       0.13119
                        -----------------------------------------
Magnitude (a.u.)       :      1.67182
Magnitude (Debye)      :      4.24944

Rotational constants in cm-1:     0.144416     0.057894     0.054154
Rotational constants in MHz :  4329.487655  1735.630977  1623.492462

                             ****ORCA TERMINATED NORMALLY****
TOTAL RUN TIME: 0 days 0 hours 0 minutes 18 seconds 884 msec
