                         Program Version 4.2.0 -  RELEASE  -
|  1> # 12h2o.su.etal.mol2,3,5,6,7,8,9,10
|  2> ! MP2 def2-TZVP EnGrad TightSCF
|  3>
|  4> %pal
|  5>     nprocs 6
|  6> end
|  7>
|  8> %maxcore 8000
|  9>
| 10> %scf
| 11>     ConvForced true
| 12> end
| 13>
| 14> *xyz 0 1
| 15> O   0.923410000  -1.794470000  -2.768350000
| 16> H   1.359750000  -2.338250000  -3.430940000
| 17> H   1.303000000  -0.879480000  -2.865760000
| 18> O  -1.752130000  -0.741530000  -2.896280000
| 19> H  -2.036450000  -0.920500000  -1.984040000
| 20> H  -0.921210000  -1.242140000  -2.984230000
| 21> O   0.885520000  -1.737840000   0.052730000
| 22> H   1.284090000  -0.839590000   0.017130000
| 23> H   1.032320000  -2.090180000  -0.841890000
| 24> O   1.737840000   0.885520000  -0.052730000
| 25> H   2.090180000   1.032320000   0.841890000
| 26> H   0.839590000   1.284090000  -0.017130000
| 27> O  -1.737840000  -0.885520000  -0.052730000
| 28> H  -2.090180000  -1.032320000   0.841890000
| 29> H  -0.839590000  -1.284090000  -0.017130000
| 30> O   1.752130000   0.741530000  -2.896280000
| 31> H   2.036450000   0.920500000  -1.984040000
| 32> H   0.921210000   1.242140000  -2.984230000
| 33> O   0.741530000  -1.752130000   2.896280000
| 34> H   0.920500000  -2.036450000   1.984040000
| 35> H   1.242140000  -0.921210000   2.984230000
| 36> O  -0.923410000   1.794470000  -2.768350000
| 37> H  -1.359750000   2.338250000  -3.430940000
| 38> H  -1.303000000   0.879480000  -2.865760000
| 39> *
| 40>
| 41>                          ****END OF INPUT****

CARTESIAN COORDINATES (ANGSTROEM)
---------------------------------
  O      0.923410   -1.794470   -2.768350
  H      1.359750   -2.338250   -3.430940
  H      1.303000   -0.879480   -2.865760
  O     -1.752130   -0.741530   -2.896280
  H     -2.036450   -0.920500   -1.984040
  H     -0.921210   -1.242140   -2.984230
  O      0.885520   -1.737840    0.052730
  H      1.284090   -0.839590    0.017130
  H      1.032320   -2.090180   -0.841890
  O      1.737840    0.885520   -0.052730
  H      2.090180    1.032320    0.841890
  H      0.839590    1.284090   -0.017130
  O     -1.737840   -0.885520   -0.052730
  H     -2.090180   -1.032320    0.841890
  H     -0.839590   -1.284090   -0.017130
  O      1.752130    0.741530   -2.896280
  H      2.036450    0.920500   -1.984040
  H      0.921210    1.242140   -2.984230
  O      0.741530   -1.752130    2.896280
  H      0.920500   -2.036450    1.984040
  H      1.242140   -0.921210    2.984230
  O     -0.923410    1.794470   -2.768350
  H     -1.359750    2.338250   -3.430940
  H     -1.303000    0.879480   -2.865760

 Total Charge           Charge          ....    0
 Multiplicity           Mult            ....    1
 Number of Electrons    NEL             ....   80
 Basis Dimension        Dim             ....  344

ORBITAL ENERGIES
----------------

  NO   OCC          E(Eh)            E(eV)
   0   2.0000     -20.631786      -561.4194
   1   2.0000     -20.570706      -559.7574
   2   2.0000     -20.567886      -559.6806
   3   2.0000     -20.561952      -559.5192
   4   2.0000     -20.549256      -559.1737
   5   2.0000     -20.547080      -559.1145
   6   2.0000     -20.543259      -559.0105
   7   2.0000     -20.542413      -558.9875
   8   2.0000      -1.415239       -38.5106
   9   2.0000      -1.368968       -37.2515
  10   2.0000      -1.359673       -36.9986
  11   2.0000      -1.345074       -36.6013
  12   2.0000      -1.341434       -36.5023
  13   2.0000      -1.330541       -36.2059
  14   2.0000      -1.327876       -36.1333
  15   2.0000      -1.318387       -35.8751
  16   2.0000      -0.772683       -21.0258
  17   2.0000      -0.737273       -20.0622
  18   2.0000      -0.733039       -19.9470
  19   2.0000      -0.723751       -19.6943
  20   2.0000      -0.708338       -19.2749
  21   2.0000      -0.705454       -19.1964
  22   2.0000      -0.698863       -19.0170
  23   2.0000      -0.695712       -18.9313
  24   2.0000      -0.659596       -17.9485
  25   2.0000      -0.626999       -17.0615
  26   2.0000      -0.614343       -16.7171
  27   2.0000      -0.596472       -16.2308
  28   2.0000      -0.584086       -15.8938
  29   2.0000      -0.576315       -15.6823
  30   2.0000      -0.569322       -15.4920
  31   2.0000      -0.556408       -15.1406
  32   2.0000      -0.543888       -14.8000
  33   2.0000      -0.517375       -14.0785
  34   2.0000      -0.513733       -13.9794
  35   2.0000      -0.508291       -13.8313
  36   2.0000      -0.499370       -13.5886
  37   2.0000      -0.493459       -13.4277
  38   2.0000      -0.493020       -13.4158
  39   2.0000      -0.487415       -13.2632
  40   0.0000       0.077872         2.1190
  41   0.0000       0.129298         3.5184
  42   0.0000       0.148329         4.0362
  43   0.0000       0.156624         4.2619
  44   0.0000       0.169897         4.6231

MULLIKEN ATOMIC CHARGES
-----------------------
   0 O :   -0.760637
   1 H :    0.352850
   2 H :    0.384389
   3 O :   -0.725946
   4 H :    0.388715
   5 H :    0.364482
   6 O :   -0.748160
   7 H :    0.352028
   8 H :    0.387684
   9 O :   -0.719808
  10 H :    0.365699
  11 H :    0.389132
  12 O :   -0.740298
  13 H :    0.346420
  14 H :    0.363277
  15 O :   -0.721735
  16 H :    0.379500
  17 H :    0.373078
  18 O :   -0.688517
  19 H :    0.376066
  20 H :    0.307345
  21 O :   -0.752343
  22 H :    0.340715
  23 H :    0.386064
Sum of atomic charges:    0.0000000

LOEWDIN ATOMIC CHARGES
----------------------
   0 O :   -0.316520
   1 H :    0.160270
   2 H :    0.146237
   3 O :   -0.288744
   4 H :    0.158547
   5 H :    0.147540
   6 O :   -0.299953
   7 H :    0.139098
   8 H :    0.153900
   9 O :   -0.275589
  10 H :    0.175630
  11 H :    0.191244
  12 O :   -0.343968
  13 H :    0.166400
  14 H :    0.142507
  15 O :   -0.285066
  16 H :    0.153713
  17 H :    0.151832
  18 O :   -0.337193
  19 H :    0.151878
  20 H :    0.152161
  21 O :   -0.345535
  22 H :    0.155487
  23 H :    0.146122

  Mayer bond orders larger than 0.100000
B(  0-O ,  1-H ) :   0.8394 B(  0-O ,  2-H ) :   0.7262 B(  2-H , 15-O ) :   0.1240
B(  3-O ,  4-H ) :   0.7977 B(  3-O ,  5-H ) :   0.8046 B(  3-O , 23-H ) :   0.1194
B(  6-O ,  7-H ) :   0.7842 B(  6-O ,  8-H ) :   0.7904 B(  9-O , 10-H ) :   0.8298
B(  9-O , 11-H ) :   0.8064 B( 12-O , 13-H ) :   0.8439 B( 12-O , 14-H ) :   0.7729
B( 15-O , 16-H ) :   0.8166 B( 15-O , 17-H ) :   0.7823 B( 18-O , 19-H ) :   0.8132
B( 18-O , 20-H ) :   0.8687 B( 21-O , 22-H ) :   0.8486 B( 21-O , 23-H ) :   0.7365

MP2 TOTAL ENERGY:     -610.601462441 Eh
FINAL SINGLE POINT ENERGY      -610.601462440565

DIPOLE MOMENT
-------------
                                X             Y             Z
Electronic contribution:      0.05645      -0.01812      -0.12217
Nuclear contribution   :      1.01960       0.90936       0.19520
                        -----------------------------------------
Total Dipole Moment    :      1.07605       0.89124       0.07303
                        -----------------------------------------
Magnitude (a.u.)       :      1.39912
Magnitude (Debye)      :      3.55628

Rotational constants in cm-1:     0.037812     0.020602     0.018530
Rotational constants in MHz :  1133.584620   617.621187   555.518057

                             ****ORCA TERMINATED NORMALLY****
TOTAL RUN TIME: 0 days 0 hours 3 minutes 30 seconds 144 msec
