                         Program Version 4.2.0 -  RELEASE  -
|  1> # 12mecn.remya.etal.2.mol2,4,9
|  2> ! MP2 def2-TZVP EnGrad TightSCF
|  3>
|  4> %pal
|  5>     nprocs 6
|  6> end
|  7>
|  8> %maxcore 8000
|  9>
| 10> %scf
| 11>     ConvForced true
| 12> end
| 13>
| 14> *xyz 0 1
| 15> C  -4.219070000  -3.477410000  -1.501740000
| 16> H  -3.251530000  -3.803540000  -1.893830000
| 17> H  -4.452920000  -2.481700000  -1.890840000
| 18> H  -4.992170000  -4.178130000  -1.824640000
| 19> C  -4.154550000  -3.418790000  -0.058340000
| 20> N  -4.091140000  -3.354840000   1.104432000
| 21> C  -1.509690000  -0.693960000  -1.610140000
| 22> H  -1.327010000  -1.692700000  -2.017370000
| 23> H  -0.742170000  -0.000650000  -1.964400000
| 24> H  -2.491920000  -0.334310000  -1.929350000
| 25> C  -1.473570000  -0.748120000  -0.167200000
| 26> N  -1.447490000  -0.793720000   0.998938000
| 27> C   0.923766000   4.000693000  -1.575910000
| 28> H   0.011949000   4.478423000  -1.939550000
| 29> H   0.947903000   2.966558000  -1.929960000
| 30> H   1.805950000   4.519548000  -1.956520000
| 31> C   0.942834000   3.994846000  -0.131200000
| 32> N   0.960035000   3.982544000   1.035639000
| 33> *
| 34>
| 35>                          ****END OF INPUT****

CARTESIAN COORDINATES (ANGSTROEM)
---------------------------------
  C     -4.219070   -3.477410   -1.501740
  H     -3.251530   -3.803540   -1.893830
  H     -4.452920   -2.481700   -1.890840
  H     -4.992170   -4.178130   -1.824640
  C     -4.154550   -3.418790   -0.058340
  N     -4.091140   -3.354840    1.104432
  C     -1.509690   -0.693960   -1.610140
  H     -1.327010   -1.692700   -2.017370
  H     -0.742170   -0.000650   -1.964400
  H     -2.491920   -0.334310   -1.929350
  C     -1.473570   -0.748120   -0.167200
  N     -1.447490   -0.793720    0.998938
  C      0.923766    4.000693   -1.575910
  H      0.011949    4.478423   -1.939550
  H      0.947903    2.966558   -1.929960
  H      1.805950    4.519548   -1.956520
  C      0.942834    3.994846   -0.131200
  N      0.960035    3.982544    1.035639

 Total Charge           Charge          ....    0
 Multiplicity           Mult            ....    1
 Number of Electrons    NEL             ....   66
 Basis Dimension        Dim             ....  333

ORBITAL ENERGIES
----------------

  NO   OCC          E(Eh)            E(eV)
   0   2.0000     -15.573839      -423.7857
   1   2.0000     -15.571984      -423.7352
   2   2.0000     -15.571885      -423.7325
   3   2.0000     -11.293187      -307.3032
   4   2.0000     -11.290750      -307.2369
   5   2.0000     -11.288891      -307.1863
   6   2.0000     -11.279728      -306.9370
   7   2.0000     -11.276509      -306.8494
   8   2.0000     -11.275877      -306.8322
   9   2.0000      -1.214343       -33.0439
  10   2.0000      -1.212641       -32.9977
  11   2.0000      -1.211022       -32.9536
  12   2.0000      -1.050540       -28.5866
  13   2.0000      -1.047485       -28.5035
  14   2.0000      -1.046979       -28.4898
  15   2.0000      -0.705169       -19.1886
  16   2.0000      -0.703369       -19.1396
  17   2.0000      -0.702531       -19.1168
  18   2.0000      -0.644908       -17.5488
  19   2.0000      -0.641767       -17.4634
  20   2.0000      -0.637670       -17.3519
  21   2.0000      -0.635517       -17.2933
  22   2.0000      -0.634395       -17.2628
  23   2.0000      -0.631445       -17.1825
  24   2.0000      -0.555314       -15.1109
  25   2.0000      -0.553621       -15.0648
  26   2.0000      -0.550652       -14.9840
  27   2.0000      -0.463058       -12.6004
  28   2.0000      -0.457970       -12.4620
  29   2.0000      -0.457230       -12.4419
  30   2.0000      -0.456951       -12.4343
  31   2.0000      -0.453805       -12.3487
  32   2.0000      -0.446792       -12.1578
  33   0.0000       0.086248         2.3469
  34   0.0000       0.107833         2.9343
  35   0.0000       0.140953         3.8355
  36   0.0000       0.145760         3.9663
  37   0.0000       0.151555         4.1240

MULLIKEN ATOMIC CHARGES
-----------------------
   0 C :   -0.286642
   1 H :    0.165277
   2 H :    0.162800
   3 H :    0.182655
   4 C :   -0.154706
   5 N :   -0.069340
   6 C :   -0.281921
   7 H :    0.164496
   8 H :    0.170300
   9 H :    0.167195
  10 C :   -0.153414
  11 N :   -0.066623
  12 C :   -0.280065
  13 H :    0.172624
  14 H :    0.159900
  15 H :    0.174951
  16 C :   -0.144387
  17 N :   -0.083100
Sum of atomic charges:   -0.0000000

LOEWDIN ATOMIC CHARGES
----------------------
   0 C :   -0.288661
   1 H :    0.149261
   2 H :    0.148970
   3 H :    0.152031
   4 C :   -0.224748
   5 N :    0.063269
   6 C :   -0.289316
   7 H :    0.148926
   8 H :    0.149594
   9 H :    0.149979
  10 C :   -0.226580
  11 N :    0.067267
  12 C :   -0.285207
  13 H :    0.151034
  14 H :    0.149103
  15 H :    0.152256
  16 C :   -0.220872
  17 N :    0.053694

  Mayer bond orders larger than 0.100000
B(  0-C ,  1-H ) :   0.9229 B(  0-C ,  2-H ) :   0.9209 B(  0-C ,  3-H ) :   0.9112
B(  0-C ,  4-C ) :   0.8987 B(  4-C ,  5-N ) :   2.8244 B(  6-C ,  7-H ) :   0.9208
B(  6-C ,  8-H ) :   0.9150 B(  6-C ,  9-H ) :   0.9234 B(  6-C , 10-C ) :   0.8956
B( 10-C , 11-N ) :   2.8186 B( 12-C , 13-H ) :   0.9171 B( 12-C , 14-H ) :   0.9202
B( 12-C , 15-H ) :   0.9169 B( 12-C , 16-C ) :   0.9010 B( 16-C , 17-N ) :   2.8289

MP2 TOTAL ENERGY:     -397.445150451 Eh
FINAL SINGLE POINT ENERGY      -397.445150451436

DIPOLE MOMENT
-------------
                                X             Y             Z
Electronic contribution:      0.25301       0.01190       9.60996
Nuclear contribution   :     -0.38221      -0.01589     -13.91386
                        -----------------------------------------
Total Dipole Moment    :     -0.12920      -0.00399      -4.30390
                        -----------------------------------------
Magnitude (a.u.)       :      4.30584
Magnitude (Debye)      :     10.94458

Rotational constants in cm-1:     0.095359     0.009913     0.009153
Rotational constants in MHz :  2858.799645   297.188782   274.406581

                             ****ORCA TERMINATED NORMALLY****
TOTAL RUN TIME: 0 days 0 hours 3 minutes 12 seconds 414 msec
