                         Program Version 4.2.0 -  RELEASE  -
|  1> # 12h2o.su.etal.mol2,3,6,7,8,9,10
|  2> ! MP2 def2-TZVP EnGrad TightSCF
|  3>
|  4> %pal
|  5>     nprocs 6
|  6> end
|  7>
|  8> %maxcore 8000
|  9>
| 10> %scf
| 11>     ConvForced true
| 12> end
| 13>
| 14> *xyz 0 1
| 15> O   0.923410000  -1.794470000  -2.768350000
| 16> H   1.359750000  -2.338250000  -3.430940000
| 17> H   1.303000000  -0.879480000  -2.865760000
| 18> O  -1.752130000  -0.741530000  -2.896280000
| 19> H  -2.036450000  -0.920500000  -1.984040000
| 20> H  -0.921210000  -1.242140000  -2.984230000
| 21> O   1.737840000   0.885520000  -0.052730000
| 22> H   2.090180000   1.032320000   0.841890000
| 23> H   0.839590000   1.284090000  -0.017130000
| 24> O  -1.737840000  -0.885520000  -0.052730000
| 25> H  -2.090180000  -1.032320000   0.841890000
| 26> H  -0.839590000  -1.284090000  -0.017130000
| 27> O   1.752130000   0.741530000  -2.896280000
| 28> H   2.036450000   0.920500000  -1.984040000
| 29> H   0.921210000   1.242140000  -2.984230000
| 30> O   0.741530000  -1.752130000   2.896280000
| 31> H   0.920500000  -2.036450000   1.984040000
| 32> H   1.242140000  -0.921210000   2.984230000
| 33> O  -0.923410000   1.794470000  -2.768350000
| 34> H  -1.359750000   2.338250000  -3.430940000
| 35> H  -1.303000000   0.879480000  -2.865760000
| 36> *
| 37>
| 38>                          ****END OF INPUT****

CARTESIAN COORDINATES (ANGSTROEM)
---------------------------------
  O      0.923410   -1.794470   -2.768350
  H      1.359750   -2.338250   -3.430940
  H      1.303000   -0.879480   -2.865760
  O     -1.752130   -0.741530   -2.896280
  H     -2.036450   -0.920500   -1.984040
  H     -0.921210   -1.242140   -2.984230
  O      1.737840    0.885520   -0.052730
  H      2.090180    1.032320    0.841890
  H      0.839590    1.284090   -0.017130
  O     -1.737840   -0.885520   -0.052730
  H     -2.090180   -1.032320    0.841890
  H     -0.839590   -1.284090   -0.017130
  O      1.752130    0.741530   -2.896280
  H      2.036450    0.920500   -1.984040
  H      0.921210    1.242140   -2.984230
  O      0.741530   -1.752130    2.896280
  H      0.920500   -2.036450    1.984040
  H      1.242140   -0.921210    2.984230
  O     -0.923410    1.794470   -2.768350
  H     -1.359750    2.338250   -3.430940
  H     -1.303000    0.879480   -2.865760

 Total Charge           Charge          ....    0
 Multiplicity           Mult            ....    1
 Number of Electrons    NEL             ....   70
 Basis Dimension        Dim             ....  301

ORBITAL ENERGIES
----------------

  NO   OCC          E(Eh)            E(eV)
   0   2.0000     -20.598895      -560.5244
   1   2.0000     -20.588001      -560.2280
   2   2.0000     -20.583300      -560.1001
   3   2.0000     -20.542054      -558.9777
   4   2.0000     -20.539265      -558.9018
   5   2.0000     -20.538945      -558.8931
   6   2.0000     -20.536695      -558.8319
   7   2.0000      -1.377392       -37.4807
   8   2.0000      -1.366650       -37.1884
   9   2.0000      -1.362181       -37.0668
  10   2.0000      -1.342821       -36.5400
  11   2.0000      -1.332262       -36.2527
  12   2.0000      -1.321148       -35.9503
  13   2.0000      -1.310909       -35.6716
  14   2.0000      -0.739614       -20.1259
  15   2.0000      -0.729070       -19.8390
  16   2.0000      -0.724894       -19.7254
  17   2.0000      -0.707123       -19.2418
  18   2.0000      -0.705571       -19.1996
  19   2.0000      -0.696338       -18.9483
  20   2.0000      -0.692180       -18.8352
  21   2.0000      -0.624837       -17.0027
  22   2.0000      -0.614489       -16.7211
  23   2.0000      -0.599427       -16.3112
  24   2.0000      -0.592985       -16.1359
  25   2.0000      -0.573452       -15.6044
  26   2.0000      -0.563635       -15.3373
  27   2.0000      -0.544692       -14.8218
  28   2.0000      -0.536982       -14.6120
  29   2.0000      -0.530641       -14.4395
  30   2.0000      -0.526402       -14.3241
  31   2.0000      -0.489454       -13.3187
  32   2.0000      -0.488218       -13.2851
  33   2.0000      -0.485427       -13.2091
  34   2.0000      -0.484068       -13.1722
  35   0.0000       0.072691         1.9780
  36   0.0000       0.123235         3.3534
  37   0.0000       0.140103         3.8124
  38   0.0000       0.157527         4.2865
  39   0.0000       0.168445         4.5836

MULLIKEN ATOMIC CHARGES
-----------------------
   0 O :   -0.750852
   1 H :    0.338666
   2 H :    0.383394
   3 O :   -0.725508
   4 H :    0.381794
   5 H :    0.366141
   6 O :   -0.702569
   7 H :    0.340873
   8 H :    0.367279
   9 O :   -0.701571
  10 H :    0.355280
  11 H :    0.350308
  12 O :   -0.724498
  13 H :    0.379484
  14 H :    0.367128
  15 O :   -0.668353
  16 H :    0.338337
  17 H :    0.332122
  18 O :   -0.749776
  19 H :    0.338112
  20 H :    0.384210
Sum of atomic charges:    0.0000000

LOEWDIN ATOMIC CHARGES
----------------------
   0 O :   -0.346135
   1 H :    0.154331
   2 H :    0.145507
   3 O :   -0.289392
   4 H :    0.156070
   5 H :    0.149040
   6 O :   -0.317492
   7 H :    0.165745
   8 H :    0.181964
   9 O :   -0.316869
  10 H :    0.172351
  11 H :    0.173258
  12 O :   -0.289013
  13 H :    0.155276
  14 H :    0.149543
  15 O :   -0.326029
  16 H :    0.163401
  17 H :    0.163856
  18 O :   -0.345343
  19 H :    0.154153
  20 H :    0.145777

  Mayer bond orders larger than 0.100000
B(  0-O ,  1-H ) :   0.8498 B(  0-O ,  2-H ) :   0.7400 B(  2-H , 12-O ) :   0.1182
B(  3-O ,  4-H ) :   0.8095 B(  3-O ,  5-H ) :   0.7928 B(  3-O , 20-H ) :   0.1181
B(  6-O ,  7-H ) :   0.8462 B(  6-O ,  8-H ) :   0.8237 B(  9-O , 10-H ) :   0.8385
B(  9-O , 11-H ) :   0.8327 B( 12-O , 13-H ) :   0.8125 B( 12-O , 14-H ) :   0.7903
B( 15-O , 16-H ) :   0.8506 B( 15-O , 17-H ) :   0.8549 B( 18-O , 19-H ) :   0.8501
B( 18-O , 20-H ) :   0.7394

MP2 TOTAL ENERGY:     -534.256874879 Eh
FINAL SINGLE POINT ENERGY      -534.256874879479

DIPOLE MOMENT
-------------
                                X             Y             Z
Electronic contribution:     -0.11234      -0.07183       0.15195
Nuclear contribution   :      0.56566       0.45497       0.96948
                        -----------------------------------------
Total Dipole Moment    :      0.45331       0.38314       1.12143
                        -----------------------------------------
Magnitude (a.u.)       :      1.26881
Magnitude (Debye)      :      3.22506

Rotational constants in cm-1:     0.039651     0.022468     0.019585
Rotational constants in MHz :  1188.699151   673.587066   587.155262

                             ****ORCA TERMINATED NORMALLY****
TOTAL RUN TIME: 0 days 0 hours 1 minutes 56 seconds 629 msec
