                         Program Version 4.2.0 -  RELEASE  -
|  1> # 12mecn.remya.etal.2.mol5,8
|  2> ! MP2 def2-TZVP EnGrad TightSCF
|  3>
|  4> %pal
|  5>     nprocs 6
|  6> end
|  7>
|  8> %maxcore 8000
|  9>
| 10> %scf
| 11>     ConvForced true
| 12> end
| 13>
| 14> *xyz 0 1
| 15> C  -1.955700000   2.515080000   1.698463000
| 16> H  -2.923830000   2.883163000   2.049269000
| 17> H  -1.154850000   3.171830000   2.050990000
| 18> H  -1.790380000   1.506115000   2.087896000
| 19> C  -1.948230000   2.482156000   0.253672000
| 20> N  -1.937550000   2.462523000  -0.913150000
| 21> C   1.912641000  -2.468050000  -1.750510000
| 22> H   2.876947000  -2.793500000  -2.151200000
| 23> H   1.688016000  -1.463720000  -2.122170000
| 24> H   1.123460000  -3.154780000  -2.069590000
| 25> C   1.977850000  -2.444240000  -0.306900000
| 26> N   2.036566000  -2.426130000   0.858249000
| 27> *
| 28>
| 29>                          ****END OF INPUT****

CARTESIAN COORDINATES (ANGSTROEM)
---------------------------------
  C     -1.955700    2.515080    1.698463
  H     -2.923830    2.883163    2.049269
  H     -1.154850    3.171830    2.050990
  H     -1.790380    1.506115    2.087896
  C     -1.948230    2.482156    0.253672
  N     -1.937550    2.462523   -0.913150
  C      1.912641   -2.468050   -1.750510
  H      2.876947   -2.793500   -2.151200
  H      1.688016   -1.463720   -2.122170
  H      1.123460   -3.154780   -2.069590
  C      1.977850   -2.444240   -0.306900
  N      2.036566   -2.426130    0.858249

 Total Charge           Charge          ....    0
 Multiplicity           Mult            ....    1
 Number of Electrons    NEL             ....   44
 Basis Dimension        Dim             ....  222

ORBITAL ENERGIES
----------------

  NO   OCC          E(Eh)            E(eV)
   0   2.0000     -15.573000      -423.7629
   1   2.0000     -15.572436      -423.7475
   2   2.0000     -11.283510      -307.0399
   3   2.0000     -11.283014      -307.0264
   4   2.0000     -11.280521      -306.9586
   5   2.0000     -11.279945      -306.9429
   6   2.0000      -1.214489       -33.0479
   7   2.0000      -1.214133       -33.0382
   8   2.0000      -1.042618       -28.3711
   9   2.0000      -1.042103       -28.3571
  10   2.0000      -0.698520       -19.0077
  11   2.0000      -0.697961       -18.9925
  12   2.0000      -0.631444       -17.1825
  13   2.0000      -0.630960       -17.1693
  14   2.0000      -0.629266       -17.1232
  15   2.0000      -0.628769       -17.1097
  16   2.0000      -0.556248       -15.1363
  17   2.0000      -0.555750       -15.1227
  18   2.0000      -0.457696       -12.4545
  19   2.0000      -0.457403       -12.4466
  20   2.0000      -0.457299       -12.4437
  21   2.0000      -0.456993       -12.4354
  22   0.0000       0.116641         3.1740
  23   0.0000       0.125118         3.4046
  24   0.0000       0.172027         4.6811
  25   0.0000       0.172295         4.6884
  26   0.0000       0.172826         4.7028

MULLIKEN ATOMIC CHARGES
-----------------------
   0 C :   -0.278565
   1 H :    0.171163
   2 H :    0.172484
   3 H :    0.177199
   4 C :   -0.144816
   5 N :   -0.097454
   6 C :   -0.278911
   7 H :    0.171159
   8 H :    0.178093
   9 H :    0.171931
  10 C :   -0.145445
  11 N :   -0.096838
Sum of atomic charges:    0.0000000

LOEWDIN ATOMIC CHARGES
----------------------
   0 C :   -0.282947
   1 H :    0.152375
   2 H :    0.153254
   3 H :    0.154361
   4 C :   -0.218951
   5 N :    0.041912
   6 C :   -0.282957
   7 H :    0.152572
   8 H :    0.154657
   9 H :    0.152807
  10 C :   -0.219146
  11 N :    0.042061

  Mayer bond orders larger than 0.100000
B(  0-C ,  1-H ) :   0.9163 B(  0-C ,  2-H ) :   0.9158 B(  0-C ,  3-H ) :   0.9150
B(  0-C ,  4-C ) :   0.9018 B(  4-C ,  5-N ) :   2.8395 B(  6-C ,  7-H ) :   0.9163
B(  6-C ,  8-H ) :   0.9148 B(  6-C ,  9-H ) :   0.9158 B(  6-C , 10-C ) :   0.9017
B( 10-C , 11-N ) :   2.8401

MP2 TOTAL ENERGY:     -264.967622480 Eh
FINAL SINGLE POINT ENERGY      -264.967622479823

DIPOLE MOMENT
-------------
                                X             Y             Z
Electronic contribution:      0.15627      -0.01644      -0.00290
Nuclear contribution   :     -0.24060       0.02466       0.00487
                        -----------------------------------------
Total Dipole Moment    :     -0.08433       0.00822       0.00197
                        -----------------------------------------
Magnitude (a.u.)       :      0.08475
Magnitude (Debye)      :      0.21543

Rotational constants in cm-1:     0.157539     0.020072     0.017927
Rotational constants in MHz :  4722.893103   601.742449   537.449124

                             ****ORCA TERMINATED NORMALLY****
TOTAL RUN TIME: 0 days 0 hours 0 minutes 46 seconds 911 msec
