                         Program Version 4.2.0 -  RELEASE  -
|  1> # 12meoh.boyd.etal.mol6,9,10
|  2> ! MP2 def2-TZVP EnGrad TightSCF
|  3>
|  4> %pal
|  5>     nprocs 6
|  6> end
|  7>
|  8> %maxcore 8000
|  9>
| 10> %scf
| 11>     ConvForced true
| 12> end
| 13>
| 14> *xyz 0 1
| 15> O   2.622209273  -1.703002590  -1.445859723
| 16> H   1.828551432  -1.986513781  -0.909754968
| 17> C   2.781117675  -2.615822239  -2.525472890
| 18> H   3.691063626  -2.339003544  -3.065143454
| 19> H   1.934727323  -2.559520367  -3.223226661
| 20> H   2.879948338  -3.653846211  -2.177750170
| 21> O   1.390610024   3.194080770  -1.536658882
| 22> H   2.162932299   2.881562730  -0.993525056
| 23> C   1.202977189   4.580367182  -1.302880219
| 24> H   0.374773115   4.915764831  -1.934164643
| 25> H   2.098649340   5.157710875  -1.570472348
| 26> H   0.950320401   4.800436015  -0.254328827
| 27> O  -5.201143618   0.064582726  -0.172223772
| 28> H  -4.686891530   0.869258890   0.107806143
| 29> C  -6.513192168   0.171391798   0.359883449
| 30> H  -7.049381312  -0.749234190   0.111361174
| 31> H  -7.057741163   1.017801101  -0.081819420
| 32> H  -6.514770575   0.292264928   1.453058834
| 33> *
| 34>
| 35>                          ****END OF INPUT****

CARTESIAN COORDINATES (ANGSTROEM)
---------------------------------
  O      2.622209   -1.703003   -1.445860
  H      1.828551   -1.986514   -0.909755
  C      2.781118   -2.615822   -2.525473
  H      3.691064   -2.339004   -3.065143
  H      1.934727   -2.559520   -3.223227
  H      2.879948   -3.653846   -2.177750
  O      1.390610    3.194081   -1.536659
  H      2.162932    2.881563   -0.993525
  C      1.202977    4.580367   -1.302880
  H      0.374773    4.915765   -1.934165
  H      2.098649    5.157711   -1.570472
  H      0.950320    4.800436   -0.254329
  O     -5.201144    0.064583   -0.172224
  H     -4.686892    0.869259    0.107806
  C     -6.513192    0.171392    0.359883
  H     -7.049381   -0.749234    0.111361
  H     -7.057741    1.017801   -0.081819
  H     -6.514771    0.292265    1.453059

 Total Charge           Charge          ....    0
 Multiplicity           Mult            ....    1
 Number of Electrons    NEL             ....   54
 Basis Dimension        Dim             ....  258

ORBITAL ENERGIES
----------------

  NO   OCC          E(Eh)            E(eV)
   0   2.0000     -20.556591      -559.3733
   1   2.0000     -20.554013      -559.3031
   2   2.0000     -20.552643      -559.2658
   3   2.0000     -11.270723      -306.6920
   4   2.0000     -11.268427      -306.6295
   5   2.0000     -11.267783      -306.6120
   6   2.0000      -1.346699       -36.6455
   7   2.0000      -1.343453       -36.5572
   8   2.0000      -1.342094       -36.5202
   9   2.0000      -0.918472       -24.9929
  10   2.0000      -0.916051       -24.9270
  11   2.0000      -0.915499       -24.9120
  12   2.0000      -0.681402       -18.5419
  13   2.0000      -0.678520       -18.4635
  14   2.0000      -0.677100       -18.4248
  15   2.0000      -0.616048       -16.7635
  16   2.0000      -0.613473       -16.6935
  17   2.0000      -0.613034       -16.6815
  18   2.0000      -0.590665       -16.0728
  19   2.0000      -0.588241       -16.0069
  20   2.0000      -0.587479       -15.9861
  21   2.0000      -0.499056       -13.5800
  22   2.0000      -0.496150       -13.5009
  23   2.0000      -0.495344       -13.4790
  24   2.0000      -0.447709       -12.1828
  25   2.0000      -0.445079       -12.1112
  26   2.0000      -0.444364       -12.0918
  27   0.0000       0.134380         3.6567
  28   0.0000       0.136403         3.7117
  29   0.0000       0.144039         3.9195
  30   0.0000       0.175775         4.7831
  31   0.0000       0.176727         4.8090

MULLIKEN ATOMIC CHARGES
-----------------------
   0 O :   -0.500081
   1 H :    0.323176
   2 C :   -0.171239
   3 H :    0.127704
   4 H :    0.112572
   5 H :    0.108074
   6 O :   -0.495474
   7 H :    0.325514
   8 C :   -0.171617
   9 H :    0.127213
  10 H :    0.108630
  11 H :    0.105527
  12 O :   -0.496229
  13 H :    0.322859
  14 C :   -0.172457
  15 H :    0.128654
  16 H :    0.108833
  17 H :    0.108340
Sum of atomic charges:    0.0000000

LOEWDIN ATOMIC CHARGES
----------------------
   0 O :   -0.112051
   1 H :    0.193265
   2 C :   -0.382163
   3 H :    0.109847
   4 H :    0.096284
   5 H :    0.094953
   6 O :   -0.104359
   7 H :    0.192477
   8 C :   -0.387159
   9 H :    0.109714
  10 H :    0.095050
  11 H :    0.094143
  12 O :   -0.106765
  13 H :    0.191590
  14 C :   -0.385268
  15 H :    0.110217
  16 H :    0.095143
  17 H :    0.095083

  Mayer bond orders larger than 0.100000
B(  0-O ,  1-H ) :   0.8405 B(  0-O ,  2-C ) :   0.9258 B(  2-C ,  3-H ) :   0.9376
B(  2-C ,  4-H ) :   0.9392 B(  2-C ,  5-H ) :   0.9388 B(  6-O ,  7-H ) :   0.8393
B(  6-O ,  8-C ) :   0.9319 B(  8-C ,  9-H ) :   0.9377 B(  8-C , 10-H ) :   0.9402
B(  8-C , 11-H ) :   0.9372 B( 12-O , 13-H ) :   0.8413 B( 12-O , 14-C ) :   0.9283
B( 14-C , 15-H ) :   0.9377 B( 14-C , 16-H ) :   0.9390 B( 14-C , 17-H ) :   0.9385

MP2 TOTAL ENERGY:     -346.520012383 Eh
FINAL SINGLE POINT ENERGY      -346.520012382701

DIPOLE MOMENT
-------------
                                X             Y             Z
Electronic contribution:      1.67719      -0.82472       0.18566
Nuclear contribution   :     -1.90520       1.16738       0.50946
                        -----------------------------------------
Total Dipole Moment    :     -0.22801       0.34266       0.69512
                        -----------------------------------------
Magnitude (a.u.)       :      0.80783
Magnitude (Debye)      :      2.05335

Rotational constants in cm-1:     0.026443     0.011608     0.008176
Rotational constants in MHz :   792.728598   347.995267   245.123229

                             ****ORCA TERMINATED NORMALLY****
TOTAL RUN TIME: 0 days 0 hours 0 minutes 49 seconds 582 msec
