                         Program Version 4.2.0 -  RELEASE  -
|  1> # 12meoh.boyd.etal.mol0,5,6
|  2> ! MP2 def2-TZVP EnGrad TightSCF
|  3>
|  4> %pal
|  5>     nprocs 6
|  6> end
|  7>
|  8> %maxcore 8000
|  9>
| 10> %scf
| 11>     ConvForced true
| 12> end
| 13>
| 14> *xyz 0 1
| 15> O  -1.776108874  -2.741384797  -1.019308298
| 16> H  -2.520094035  -2.452295987  -0.420778302
| 17> C  -2.174025166  -3.952700964  -1.647004581
| 18> H  -1.359803895  -4.272673416  -2.304149236
| 19> H  -3.075973971  -3.808692420  -2.256751112
| 20> H  -2.370225393  -4.752784761  -0.918966137
| 21> O  -0.662721750   1.449094618  -1.383082065
| 22> H   0.064188300   2.119867608  -1.465650660
| 23> C  -0.353319239   0.341218776  -2.229326771
| 24> H  -1.072358530  -0.454743281  -2.019906495
| 25> H   0.657636746  -0.044472139  -2.042736771
| 26> H  -0.434616607   0.624733901  -3.287793021
| 27> O   2.622209273  -1.703002590  -1.445859723
| 28> H   1.828551432  -1.986513781  -0.909754968
| 29> C   2.781117675  -2.615822239  -2.525472890
| 30> H   3.691063626  -2.339003544  -3.065143454
| 31> H   1.934727323  -2.559520367  -3.223226661
| 32> H   2.879948338  -3.653846211  -2.177750170
| 33> *
| 34>
| 35>                          ****END OF INPUT****

CARTESIAN COORDINATES (ANGSTROEM)
---------------------------------
  O     -1.776109   -2.741385   -1.019308
  H     -2.520094   -2.452296   -0.420778
  C     -2.174025   -3.952701   -1.647005
  H     -1.359804   -4.272673   -2.304149
  H     -3.075974   -3.808692   -2.256751
  H     -2.370225   -4.752785   -0.918966
  O     -0.662722    1.449095   -1.383082
  H      0.064188    2.119868   -1.465651
  C     -0.353319    0.341219   -2.229327
  H     -1.072359   -0.454743   -2.019906
  H      0.657637   -0.044472   -2.042737
  H     -0.434617    0.624734   -3.287793
  O      2.622209   -1.703003   -1.445860
  H      1.828551   -1.986514   -0.909755
  C      2.781118   -2.615822   -2.525473
  H      3.691064   -2.339004   -3.065143
  H      1.934727   -2.559520   -3.223227
  H      2.879948   -3.653846   -2.177750

 Total Charge           Charge          ....    0
 Multiplicity           Mult            ....    1
 Number of Electrons    NEL             ....   54
 Basis Dimension        Dim             ....  258

ORBITAL ENERGIES
----------------

  NO   OCC          E(Eh)            E(eV)
   0   2.0000     -20.568378      -559.6940
   1   2.0000     -20.555272      -559.3374
   2   2.0000     -20.542093      -558.9788
   3   2.0000     -11.280076      -306.9465
   4   2.0000     -11.269861      -306.6685
   5   2.0000     -11.250810      -306.1501
   6   2.0000      -1.357628       -36.9429
   7   2.0000      -1.343611       -36.5615
   8   2.0000      -1.330105       -36.1940
   9   2.0000      -0.928153       -25.2563
  10   2.0000      -0.917544       -24.9676
  11   2.0000      -0.901962       -24.5436
  12   2.0000      -0.691631       -18.8202
  13   2.0000      -0.678694       -18.4682
  14   2.0000      -0.665001       -18.0956
  15   2.0000      -0.626766       -17.0552
  16   2.0000      -0.616447       -16.7744
  17   2.0000      -0.603122       -16.4118
  18   2.0000      -0.598309       -16.2808
  19   2.0000      -0.588777       -16.0214
  20   2.0000      -0.572678       -15.5834
  21   2.0000      -0.510837       -13.9006
  22   2.0000      -0.497859       -13.5474
  23   2.0000      -0.483381       -13.1535
  24   2.0000      -0.457816       -12.4578
  25   2.0000      -0.447993       -12.1905
  26   2.0000      -0.431487       -11.7413
  27   0.0000       0.116087         3.1589
  28   0.0000       0.145256         3.9526
  29   0.0000       0.150173         4.0864
  30   0.0000       0.164200         4.4681
  31   0.0000       0.184396         5.0177

MULLIKEN ATOMIC CHARGES
-----------------------
   0 O :   -0.497740
   1 H :    0.330811
   2 C :   -0.175404
   3 H :    0.126900
   4 H :    0.115648
   5 H :    0.113530
   6 O :   -0.509609
   7 H :    0.320595
   8 C :   -0.191071
   9 H :    0.137679
  10 H :    0.118260
  11 H :    0.097408
  12 O :   -0.499878
  13 H :    0.335476
  14 C :   -0.173617
  15 H :    0.128480
  16 H :    0.110046
  17 H :    0.112486
Sum of atomic charges:    0.0000000

LOEWDIN ATOMIC CHARGES
----------------------
   0 O :   -0.104382
   1 H :    0.196637
   2 C :   -0.383847
   3 H :    0.109357
   4 H :    0.097387
   5 H :    0.097686
   6 O :   -0.116902
   7 H :    0.187164
   8 C :   -0.387123
   9 H :    0.107931
  10 H :    0.097866
  11 H :    0.092027
  12 O :   -0.106288
  13 H :    0.195667
  14 C :   -0.383950
  15 H :    0.109719
  16 H :    0.094603
  17 H :    0.096448

  Mayer bond orders larger than 0.100000
B(  0-O ,  1-H ) :   0.8351 B(  0-O ,  2-C ) :   0.9152 B(  2-C ,  3-H ) :   0.9394
B(  2-C ,  4-H ) :   0.9400 B(  2-C ,  5-H ) :   0.9340 B(  6-O ,  7-H ) :   0.8439
B(  6-O ,  8-C ) :   0.9145 B(  8-C ,  9-H ) :   0.9277 B(  8-C , 10-H ) :   0.9394
B(  8-C , 11-H ) :   0.9359 B( 12-O , 13-H ) :   0.8318 B( 12-O , 14-C ) :   0.9226
B( 14-C , 15-H ) :   0.9388 B( 14-C , 16-H ) :   0.9373 B( 14-C , 17-H ) :   0.9396

MP2 TOTAL ENERGY:     -346.525231266 Eh
FINAL SINGLE POINT ENERGY      -346.525231265864

DIPOLE MOMENT
-------------
                                X             Y             Z
Electronic contribution:      0.04243       3.90875       3.19064
Nuclear contribution   :     -0.51783      -4.94259      -3.52442
                        -----------------------------------------
Total Dipole Moment    :     -0.47539      -1.03384      -0.33378
                        -----------------------------------------
Magnitude (a.u.)       :      1.18585
Magnitude (Debye)      :      3.01419

Rotational constants in cm-1:     0.046917     0.040483     0.023273
Rotational constants in MHz :  1406.548693  1213.661943   697.717086

                             ****ORCA TERMINATED NORMALLY****
TOTAL RUN TIME: 0 days 0 hours 1 minutes 12 seconds 726 msec
