                         Program Version 4.2.0 -  RELEASE  -
|  1> # 12h2o.su.etal.mol1,8,9,11
|  2> ! MP2 def2-TZVP EnGrad TightSCF
|  3>
|  4> %pal
|  5>     nprocs 6
|  6> end
|  7>
|  8> %maxcore 8000
|  9>
| 10> %scf
| 11>     ConvForced true
| 12> end
| 13>
| 14> *xyz 0 1
| 15> O  -1.794470000  -0.923410000   2.768350000
| 16> H  -2.338250000  -1.359750000   3.430940000
| 17> H  -0.879480000  -1.303000000   2.865760000
| 18> O   1.752130000   0.741530000  -2.896280000
| 19> H   2.036450000   0.920500000  -1.984040000
| 20> H   0.921210000   1.242140000  -2.984230000
| 21> O   0.741530000  -1.752130000   2.896280000
| 22> H   0.920500000  -2.036450000   1.984040000
| 23> H   1.242140000  -0.921210000   2.984230000
| 24> O  -0.741530000   1.752130000   2.896280000
| 25> H  -0.920500000   2.036450000   1.984040000
| 26> H  -1.242140000   0.921210000   2.984230000
| 27> *
| 28>
| 29>                          ****END OF INPUT****

CARTESIAN COORDINATES (ANGSTROEM)
---------------------------------
  O     -1.794470   -0.923410    2.768350
  H     -2.338250   -1.359750    3.430940
  H     -0.879480   -1.303000    2.865760
  O      1.752130    0.741530   -2.896280
  H      2.036450    0.920500   -1.984040
  H      0.921210    1.242140   -2.984230
  O      0.741530   -1.752130    2.896280
  H      0.920500   -2.036450    1.984040
  H      1.242140   -0.921210    2.984230
  O     -0.741530    1.752130    2.896280
  H     -0.920500    2.036450    1.984040
  H     -1.242140    0.921210    2.984230

 Total Charge           Charge          ....    0
 Multiplicity           Mult            ....    1
 Number of Electrons    NEL             ....   40
 Basis Dimension        Dim             ....  172

ORBITAL ENERGIES
----------------

  NO   OCC          E(Eh)            E(eV)
   0   2.0000     -20.606002      -560.7178
   1   2.0000     -20.568691      -559.7025
   2   2.0000     -20.549656      -559.1846
   3   2.0000     -20.534688      -558.7773
   4   2.0000      -1.391720       -37.8706
   5   2.0000      -1.347945       -36.6794
   6   2.0000      -1.334776       -36.3211
   7   2.0000      -1.315900       -35.8075
   8   2.0000      -0.748333       -20.3632
   9   2.0000      -0.719606       -19.5815
  10   2.0000      -0.710759       -19.3407
  11   2.0000      -0.685223       -18.6459
  12   2.0000      -0.630391       -17.1538
  13   2.0000      -0.586117       -15.9490
  14   2.0000      -0.585254       -15.9256
  15   2.0000      -0.556689       -15.1483
  16   2.0000      -0.532696       -14.4954
  17   2.0000      -0.512756       -13.9528
  18   2.0000      -0.498190       -13.5564
  19   2.0000      -0.482375       -13.1261
  20   0.0000       0.099118         2.6971
  21   0.0000       0.122140         3.3236
  22   0.0000       0.153851         4.1865
  23   0.0000       0.168166         4.5760
  24   0.0000       0.187637         5.1059

MULLIKEN ATOMIC CHARGES
-----------------------
   0 O :   -0.737262
   1 H :    0.341275
   2 H :    0.377234
   3 O :   -0.672506
   4 H :    0.334054
   5 H :    0.338452
   6 O :   -0.684050
   7 H :    0.360470
   8 H :    0.368344
   9 O :   -0.714151
  10 H :    0.325690
  11 H :    0.362450
Sum of atomic charges:    0.0000000

LOEWDIN ATOMIC CHARGES
----------------------
   0 O :   -0.339316
   1 H :    0.155768
   2 H :    0.144714
   3 O :   -0.331394
   4 H :    0.164088
   5 H :    0.167306
   6 O :   -0.269367
   7 H :    0.175885
   8 H :    0.179268
   9 O :   -0.352436
  10 H :    0.158318
  11 H :    0.147166

  Mayer bond orders larger than 0.100000
B(  0-O ,  1-H ) :   0.8485 B(  0-O ,  2-H ) :   0.7673 B(  3-O ,  4-H ) :   0.8551
B(  3-O ,  5-H ) :   0.8523 B(  6-O ,  7-H ) :   0.8359 B(  6-O ,  8-H ) :   0.8269
B(  9-O , 10-H ) :   0.8599 B(  9-O , 11-H ) :   0.8048

MP2 TOTAL ENERGY:     -305.272061662 Eh
FINAL SINGLE POINT ENERGY      -305.272061662308

DIPOLE MOMENT
-------------
                                X             Y             Z
Electronic contribution:      0.25432      -0.27803       0.02205
Nuclear contribution   :     -0.14599      -0.11349      -0.05351
                        -----------------------------------------
Total Dipole Moment    :      0.10833      -0.39152      -0.03147
                        -----------------------------------------
Magnitude (a.u.)       :      0.40745
Magnitude (Debye)      :      1.03566

Rotational constants in cm-1:     0.096841     0.029072     0.025248
Rotational constants in MHz :  2903.208667   871.565291   756.914361

                             ****ORCA TERMINATED NORMALLY****
TOTAL RUN TIME: 0 days 0 hours 0 minutes 15 seconds 212 msec
