                         Program Version 4.2.0 -  RELEASE  -
|  1> # 12h2o.su.etal.mol0,4,5,6,7,8,9
|  2> ! MP2 def2-TZVP EnGrad TightSCF
|  3>
|  4> %pal
|  5>     nprocs 6
|  6> end
|  7>
|  8> %maxcore 8000
|  9>
| 10> %scf
| 11>     ConvForced true
| 12> end
| 13>
| 14> *xyz 0 1
| 15> O   1.794470000   0.923410000   2.768350000
| 16> H   2.338250000   1.359750000   3.430940000
| 17> H   0.879480000   1.303000000   2.865760000
| 18> O  -0.885520000   1.737840000   0.052730000
| 19> H  -1.032320000   2.090180000  -0.841890000
| 20> H  -1.284090000   0.839590000   0.017130000
| 21> O   0.885520000  -1.737840000   0.052730000
| 22> H   1.284090000  -0.839590000   0.017130000
| 23> H   1.032320000  -2.090180000  -0.841890000
| 24> O   1.737840000   0.885520000  -0.052730000
| 25> H   2.090180000   1.032320000   0.841890000
| 26> H   0.839590000   1.284090000  -0.017130000
| 27> O  -1.737840000  -0.885520000  -0.052730000
| 28> H  -2.090180000  -1.032320000   0.841890000
| 29> H  -0.839590000  -1.284090000  -0.017130000
| 30> O   1.752130000   0.741530000  -2.896280000
| 31> H   2.036450000   0.920500000  -1.984040000
| 32> H   0.921210000   1.242140000  -2.984230000
| 33> O   0.741530000  -1.752130000   2.896280000
| 34> H   0.920500000  -2.036450000   1.984040000
| 35> H   1.242140000  -0.921210000   2.984230000
| 36> *
| 37>
| 38>                          ****END OF INPUT****

CARTESIAN COORDINATES (ANGSTROEM)
---------------------------------
  O      1.794470    0.923410    2.768350
  H      2.338250    1.359750    3.430940
  H      0.879480    1.303000    2.865760
  O     -0.885520    1.737840    0.052730
  H     -1.032320    2.090180   -0.841890
  H     -1.284090    0.839590    0.017130
  O      0.885520   -1.737840    0.052730
  H      1.284090   -0.839590    0.017130
  H      1.032320   -2.090180   -0.841890
  O      1.737840    0.885520   -0.052730
  H      2.090180    1.032320    0.841890
  H      0.839590    1.284090   -0.017130
  O     -1.737840   -0.885520   -0.052730
  H     -2.090180   -1.032320    0.841890
  H     -0.839590   -1.284090   -0.017130
  O      1.752130    0.741530   -2.896280
  H      2.036450    0.920500   -1.984040
  H      0.921210    1.242140   -2.984230
  O      0.741530   -1.752130    2.896280
  H      0.920500   -2.036450    1.984040
  H      1.242140   -0.921210    2.984230

 Total Charge           Charge          ....    0
 Multiplicity           Mult            ....    1
 Number of Electrons    NEL             ....   70
 Basis Dimension        Dim             ....  301

ORBITAL ENERGIES
----------------

  NO   OCC          E(Eh)            E(eV)
   0   2.0000     -20.619719      -561.0911
   1   2.0000     -20.578809      -559.9778
   2   2.0000     -20.577372      -559.9388
   3   2.0000     -20.571280      -559.7730
   4   2.0000     -20.566657      -559.6472
   5   2.0000     -20.544053      -559.0321
   6   2.0000     -20.521434      -558.4166
   7   2.0000      -1.400429       -38.1076
   8   2.0000      -1.378023       -37.4979
   9   2.0000      -1.364815       -37.1385
  10   2.0000      -1.357931       -36.9512
  11   2.0000      -1.343219       -36.5509
  12   2.0000      -1.325526       -36.0694
  13   2.0000      -1.306573       -35.5537
  14   2.0000      -0.765711       -20.8360
  15   2.0000      -0.735694       -20.0192
  16   2.0000      -0.732935       -19.9442
  17   2.0000      -0.729057       -19.8387
  18   2.0000      -0.719312       -19.5735
  19   2.0000      -0.695313       -18.9204
  20   2.0000      -0.686459       -18.6795
  21   2.0000      -0.649343       -17.6695
  22   2.0000      -0.623788       -16.9741
  23   2.0000      -0.614972       -16.7342
  24   2.0000      -0.603889       -16.4327
  25   2.0000      -0.587927       -15.9983
  26   2.0000      -0.569643       -15.5008
  27   2.0000      -0.553144       -15.0518
  28   2.0000      -0.536600       -14.6016
  29   2.0000      -0.523761       -14.2523
  30   2.0000      -0.521612       -14.1938
  31   2.0000      -0.516919       -14.0661
  32   2.0000      -0.510971       -13.9042
  33   2.0000      -0.490358       -13.3433
  34   2.0000      -0.471051       -12.8180
  35   0.0000       0.087904         2.3920
  36   0.0000       0.110956         3.0193
  37   0.0000       0.144040         3.9195
  38   0.0000       0.155732         4.2377
  39   0.0000       0.181987         4.9521

MULLIKEN ATOMIC CHARGES
-----------------------
   0 O :   -0.720123
   1 H :    0.367444
   2 H :    0.377988
   3 O :   -0.719008
   4 H :    0.346700
   5 H :    0.373206
   6 O :   -0.743264
   7 H :    0.374247
   8 H :    0.364895
   9 O :   -0.752570
  10 H :    0.383345
  11 H :    0.354513
  12 O :   -0.720565
  13 H :    0.355754
  14 H :    0.373233
  15 O :   -0.693283
  16 H :    0.374142
  17 H :    0.315144
  18 O :   -0.723654
  19 H :    0.369138
  20 H :    0.342718
Sum of atomic charges:   -0.0000000

LOEWDIN ATOMIC CHARGES
----------------------
   0 O :   -0.288170
   1 H :    0.169495
   2 H :    0.194662
   3 O :   -0.312368
   4 H :    0.165103
   5 H :    0.146115
   6 O :   -0.294941
   7 H :    0.145912
   8 H :    0.173185
   9 O :   -0.300830
  10 H :    0.152246
  11 H :    0.139898
  12 O :   -0.309429
  13 H :    0.169419
  14 H :    0.145230
  15 O :   -0.338851
  16 H :    0.151070
  17 H :    0.155545
  18 O :   -0.352493
  19 H :    0.149100
  20 H :    0.140103

  Mayer bond orders larger than 0.100000
B(  0-O ,  1-H ) :   0.8303 B(  0-O ,  2-H ) :   0.8151 B(  3-O ,  4-H ) :   0.8439
B(  3-O ,  5-H ) :   0.7559 B(  3-O , 11-H ) :   0.1131 B(  5-H , 12-O ) :   0.1185
B(  6-O ,  7-H ) :   0.7541 B(  6-O ,  8-H ) :   0.8298 B(  7-H ,  9-O ) :   0.1010
B(  9-O , 10-H ) :   0.8027 B(  9-O , 11-H ) :   0.7588 B( 12-O , 13-H ) :   0.8374
B( 12-O , 14-H ) :   0.7690 B( 15-O , 16-H ) :   0.8161 B( 15-O , 17-H ) :   0.8643
B( 18-O , 19-H ) :   0.8236 B( 18-O , 20-H ) :   0.8353

MP2 TOTAL ENERGY:     -534.265306263 Eh
FINAL SINGLE POINT ENERGY      -534.265306263068

DIPOLE MOMENT
-------------
                                X             Y             Z
Electronic contribution:      0.11855      -0.17343       0.12701
Nuclear contribution   :     -0.19829       1.69977       0.63259
                        -----------------------------------------
Total Dipole Moment    :     -0.07974       1.52634       0.75961
                        -----------------------------------------
Magnitude (a.u.)       :      1.70678
Magnitude (Debye)      :      4.33828

Rotational constants in cm-1:     0.041498     0.027364     0.024632
Rotational constants in MHz :  1244.081654   820.337176   738.451861

                             ****ORCA TERMINATED NORMALLY****
TOTAL RUN TIME: 0 days 0 hours 2 minutes 28 seconds 819 msec
