                         Program Version 4.2.0 -  RELEASE  -
|  1> # 12h2o.su.etal.mol1,6,7,10,11
|  2> ! MP2 def2-TZVP EnGrad TightSCF
|  3>
|  4> %pal
|  5>     nprocs 6
|  6> end
|  7>
|  8> %maxcore 8000
|  9>
| 10> %scf
| 11>     ConvForced true
| 12> end
| 13>
| 14> *xyz 0 1
| 15> O  -1.794470000  -0.923410000   2.768350000
| 16> H  -2.338250000  -1.359750000   3.430940000
| 17> H  -0.879480000  -1.303000000   2.865760000
| 18> O   1.737840000   0.885520000  -0.052730000
| 19> H   2.090180000   1.032320000   0.841890000
| 20> H   0.839590000   1.284090000  -0.017130000
| 21> O  -1.737840000  -0.885520000  -0.052730000
| 22> H  -2.090180000  -1.032320000   0.841890000
| 23> H  -0.839590000  -1.284090000  -0.017130000
| 24> O  -0.923410000   1.794470000  -2.768350000
| 25> H  -1.359750000   2.338250000  -3.430940000
| 26> H  -1.303000000   0.879480000  -2.865760000
| 27> O  -0.741530000   1.752130000   2.896280000
| 28> H  -0.920500000   2.036450000   1.984040000
| 29> H  -1.242140000   0.921210000   2.984230000
| 30> *
| 31>
| 32>                          ****END OF INPUT****

CARTESIAN COORDINATES (ANGSTROEM)
---------------------------------
  O     -1.794470   -0.923410    2.768350
  H     -2.338250   -1.359750    3.430940
  H     -0.879480   -1.303000    2.865760
  O      1.737840    0.885520   -0.052730
  H      2.090180    1.032320    0.841890
  H      0.839590    1.284090   -0.017130
  O     -1.737840   -0.885520   -0.052730
  H     -2.090180   -1.032320    0.841890
  H     -0.839590   -1.284090   -0.017130
  O     -0.923410    1.794470   -2.768350
  H     -1.359750    2.338250   -3.430940
  H     -1.303000    0.879480   -2.865760
  O     -0.741530    1.752130    2.896280
  H     -0.920500    2.036450    1.984040
  H     -1.242140    0.921210    2.984230

 Total Charge           Charge          ....    0
 Multiplicity           Mult            ....    1
 Number of Electrons    NEL             ....   50
 Basis Dimension        Dim             ....  215

ORBITAL ENERGIES
----------------

  NO   OCC          E(Eh)            E(eV)
   0   2.0000     -20.621564      -561.1413
   1   2.0000     -20.551018      -559.2216
   2   2.0000     -20.549841      -559.1896
   3   2.0000     -20.547960      -559.1384
   4   2.0000     -20.544655      -559.0485
   5   2.0000      -1.401686       -38.1418
   6   2.0000      -1.327210       -36.1152
   7   2.0000      -1.326961       -36.1084
   8   2.0000      -1.326285       -36.0901
   9   2.0000      -1.325444       -36.0672
  10   2.0000      -0.767334       -20.8802
  11   2.0000      -0.699779       -19.0419
  12   2.0000      -0.696829       -18.9617
  13   2.0000      -0.694330       -18.8937
  14   2.0000      -0.687123       -18.6976
  15   2.0000      -0.636960       -17.3326
  16   2.0000      -0.589041       -16.0286
  17   2.0000      -0.565470       -15.3872
  18   2.0000      -0.562952       -15.3187
  19   2.0000      -0.561218       -15.2715
  20   2.0000      -0.544562       -14.8183
  21   2.0000      -0.496233       -13.5032
  22   2.0000      -0.494045       -13.4437
  23   2.0000      -0.491202       -13.3663
  24   2.0000      -0.490719       -13.3531
  25   0.0000       0.084349         2.2952
  26   0.0000       0.124954         3.4002
  27   0.0000       0.145685         3.9643
  28   0.0000       0.158900         4.3239
  29   0.0000       0.182733         4.9724

MULLIKEN ATOMIC CHARGES
-----------------------
   0 O :   -0.712796
   1 H :    0.366340
   2 H :    0.367997
   3 O :   -0.683379
   4 H :    0.334169
   5 H :    0.345576
   6 O :   -0.697704
   7 H :    0.362308
   8 H :    0.329762
   9 O :   -0.686556
  10 H :    0.334708
  11 H :    0.352346
  12 O :   -0.703013
  13 H :    0.333842
  14 H :    0.356399
Sum of atomic charges:   -0.0000000

LOEWDIN ATOMIC CHARGES
----------------------
   0 O :   -0.286556
   1 H :    0.168796
   2 H :    0.190992
   3 O :   -0.337072
   4 H :    0.162648
   5 H :    0.170857
   6 O :   -0.344589
   7 H :    0.146800
   8 H :    0.165352
   9 O :   -0.339977
  10 H :    0.156182
  11 H :    0.183965
  12 O :   -0.343854
  13 H :    0.160346
  14 H :    0.146110

  Mayer bond orders larger than 0.100000
B(  0-O ,  1-H ) :   0.8305 B(  0-O ,  2-H ) :   0.8222 B(  3-O ,  4-H ) :   0.8530
B(  3-O ,  5-H ) :   0.8399 B(  6-O ,  7-H ) :   0.8249 B(  6-O ,  8-H ) :   0.8513
B(  9-O , 10-H ) :   0.8550 B(  9-O , 11-H ) :   0.8380 B( 12-O , 13-H ) :   0.8530
B( 12-O , 14-H ) :   0.8246

MP2 TOTAL ENERGY:     -381.581998320 Eh
FINAL SINGLE POINT ENERGY      -381.581998319988

DIPOLE MOMENT
-------------
                                X             Y             Z
Electronic contribution:      0.02161       0.07169       0.02490
Nuclear contribution   :     -0.93582      -1.44310       0.86245
                        -----------------------------------------
Total Dipole Moment    :     -0.91421      -1.37140       0.88735
                        -----------------------------------------
Magnitude (a.u.)       :      1.87188
Magnitude (Debye)      :      4.75793

Rotational constants in cm-1:     0.066936     0.032805     0.027435
Rotational constants in MHz :  2006.684260   983.467729   822.484281

                             ****ORCA TERMINATED NORMALLY****
TOTAL RUN TIME: 0 days 0 hours 0 minutes 30 seconds 344 msec
