                         Program Version 4.2.0 -  RELEASE  -
|  1> # 12h2o.su.etal.mol0,1,3,4,5,6,7,8,11
|  2> ! MP2 def2-TZVP EnGrad TightSCF
|  3>
|  4> %pal
|  5>     nprocs 6
|  6> end
|  7>
|  8> %maxcore 8000
|  9>
| 10> %scf
| 11>     ConvForced true
| 12> end
| 13>
| 14> *xyz 0 1
| 15> O   1.794470000   0.923410000   2.768350000
| 16> H   2.338250000   1.359750000   3.430940000
| 17> H   0.879480000   1.303000000   2.865760000
| 18> O  -1.794470000  -0.923410000   2.768350000
| 19> H  -2.338250000  -1.359750000   3.430940000
| 20> H  -0.879480000  -1.303000000   2.865760000
| 21> O  -1.752130000  -0.741530000  -2.896280000
| 22> H  -2.036450000  -0.920500000  -1.984040000
| 23> H  -0.921210000  -1.242140000  -2.984230000
| 24> O  -0.885520000   1.737840000   0.052730000
| 25> H  -1.032320000   2.090180000  -0.841890000
| 26> H  -1.284090000   0.839590000   0.017130000
| 27> O   0.885520000  -1.737840000   0.052730000
| 28> H   1.284090000  -0.839590000   0.017130000
| 29> H   1.032320000  -2.090180000  -0.841890000
| 30> O   1.737840000   0.885520000  -0.052730000
| 31> H   2.090180000   1.032320000   0.841890000
| 32> H   0.839590000   1.284090000  -0.017130000
| 33> O  -1.737840000  -0.885520000  -0.052730000
| 34> H  -2.090180000  -1.032320000   0.841890000
| 35> H  -0.839590000  -1.284090000  -0.017130000
| 36> O   1.752130000   0.741530000  -2.896280000
| 37> H   2.036450000   0.920500000  -1.984040000
| 38> H   0.921210000   1.242140000  -2.984230000
| 39> O  -0.741530000   1.752130000   2.896280000
| 40> H  -0.920500000   2.036450000   1.984040000
| 41> H  -1.242140000   0.921210000   2.984230000
| 42> *
| 43>
| 44>                          ****END OF INPUT****

CARTESIAN COORDINATES (ANGSTROEM)
---------------------------------
  O      1.794470    0.923410    2.768350
  H      2.338250    1.359750    3.430940
  H      0.879480    1.303000    2.865760
  O     -1.794470   -0.923410    2.768350
  H     -2.338250   -1.359750    3.430940
  H     -0.879480   -1.303000    2.865760
  O     -1.752130   -0.741530   -2.896280
  H     -2.036450   -0.920500   -1.984040
  H     -0.921210   -1.242140   -2.984230
  O     -0.885520    1.737840    0.052730
  H     -1.032320    2.090180   -0.841890
  H     -1.284090    0.839590    0.017130
  O      0.885520   -1.737840    0.052730
  H      1.284090   -0.839590    0.017130
  H      1.032320   -2.090180   -0.841890
  O      1.737840    0.885520   -0.052730
  H      2.090180    1.032320    0.841890
  H      0.839590    1.284090   -0.017130
  O     -1.737840   -0.885520   -0.052730
  H     -2.090180   -1.032320    0.841890
  H     -0.839590   -1.284090   -0.017130
  O      1.752130    0.741530   -2.896280
  H      2.036450    0.920500   -1.984040
  H      0.921210    1.242140   -2.984230
  O     -0.741530    1.752130    2.896280
  H     -0.920500    2.036450    1.984040
  H     -1.242140    0.921210    2.984230

 Total Charge           Charge          ....    0
 Multiplicity           Mult            ....    1
 Number of Electrons    NEL             ....   90
 Basis Dimension        Dim             ....  387

ORBITAL ENERGIES
----------------

  NO   OCC          E(Eh)            E(eV)
   0   2.0000     -20.628055      -561.3179
   1   2.0000     -20.590341      -560.2917
   2   2.0000     -20.573371      -559.8299
   3   2.0000     -20.568470      -559.6965
   4   2.0000     -20.567011      -559.6568
   5   2.0000     -20.557578      -559.4001
   6   2.0000     -20.550502      -559.2076
   7   2.0000     -20.540733      -558.9418
   8   2.0000     -20.536375      -558.8232
   9   2.0000      -1.408876       -38.3375
  10   2.0000      -1.385046       -37.6890
  11   2.0000      -1.366330       -37.1797
  12   2.0000      -1.359642       -36.9977
  13   2.0000      -1.355871       -36.8951
  14   2.0000      -1.342135       -36.5213
  15   2.0000      -1.329974       -36.1904
  16   2.0000      -1.322294       -35.9814
  17   2.0000      -1.317531       -35.8518
  18   2.0000      -0.774136       -21.0653
  19   2.0000      -0.745930       -20.2978
  20   2.0000      -0.737037       -20.0558
  21   2.0000      -0.726063       -19.7572
  22   2.0000      -0.722496       -19.6601
  23   2.0000      -0.719627       -19.5820
  24   2.0000      -0.715533       -19.4706
  25   2.0000      -0.692865       -18.8538
  26   2.0000      -0.686339       -18.6762
  27   2.0000      -0.658029       -17.9059
  28   2.0000      -0.634967       -17.2783
  29   2.0000      -0.623656       -16.9706
  30   2.0000      -0.609433       -16.5835
  31   2.0000      -0.596007       -16.2182
  32   2.0000      -0.592498       -16.1227
  33   2.0000      -0.573016       -15.5926
  34   2.0000      -0.561434       -15.2774
  35   2.0000      -0.553706       -15.0671
  36   2.0000      -0.551370       -15.0035
  37   2.0000      -0.531374       -14.4594
  38   2.0000      -0.522812       -14.2264
  39   2.0000      -0.513613       -13.9761
  40   2.0000      -0.510153       -13.8820
  41   2.0000      -0.504786       -13.7359
  42   2.0000      -0.500189       -13.6108
  43   2.0000      -0.488718       -13.2987
  44   2.0000      -0.481155       -13.0929
  45   0.0000       0.086282         2.3479
  46   0.0000       0.110553         3.0083
  47   0.0000       0.137374         3.7381
  48   0.0000       0.144117         3.9216
  49   0.0000       0.177988         4.8433

MULLIKEN ATOMIC CHARGES
-----------------------
   0 O :   -0.747386
   1 H :    0.339883
   2 H :    0.372767
   3 O :   -0.730244
   4 H :    0.370584
   5 H :    0.387612
   6 O :   -0.701451
   7 H :    0.371564
   8 H :    0.326738
   9 O :   -0.744949
  10 H :    0.363858
  11 H :    0.377155
  12 O :   -0.723599
  13 H :    0.385517
  14 H :    0.350085
  15 O :   -0.758190
  16 H :    0.388475
  17 H :    0.352892
  18 O :   -0.752877
  19 H :    0.381509
  20 H :    0.357099
  21 O :   -0.701252
  22 H :    0.373960
  23 H :    0.322034
  24 O :   -0.714885
  25 H :    0.388016
  26 H :    0.365083
Sum of atomic charges:   -0.0000000

LOEWDIN ATOMIC CHARGES
----------------------
   0 O :   -0.345028
   1 H :    0.155203
   2 H :    0.143195
   3 O :   -0.289370
   4 H :    0.171255
   5 H :    0.198276
   6 O :   -0.340069
   7 H :    0.149985
   8 H :    0.158558
   9 O :   -0.295850
  10 H :    0.172162
  11 H :    0.146718
  12 O :   -0.310169
  13 H :    0.147654
  14 H :    0.166214
  15 O :   -0.302188
  16 H :    0.154645
  17 H :    0.138779
  18 O :   -0.300628
  19 H :    0.151300
  20 H :    0.140856
  21 O :   -0.340568
  22 H :    0.150745
  23 H :    0.156327
  24 O :   -0.283675
  25 H :    0.157062
  26 H :    0.148609

  Mayer bond orders larger than 0.100000
B(  0-O ,  1-H ) :   0.8491 B(  0-O ,  2-H ) :   0.7494 B(  2-H , 24-O ) :   0.1118
B(  3-O ,  4-H ) :   0.8286 B(  3-O ,  5-H ) :   0.8073 B(  6-O ,  7-H ) :   0.8183
B(  6-O ,  8-H ) :   0.8547 B(  9-O , 10-H ) :   0.8308 B(  9-O , 11-H ) :   0.7479
B( 11-H , 18-O ) :   0.1082 B( 12-O , 13-H ) :   0.7566 B( 12-O , 14-H ) :   0.8406
B( 12-O , 20-H ) :   0.1224 B( 15-O , 16-H ) :   0.7861 B( 15-O , 17-H ) :   0.7724
B( 18-O , 19-H ) :   0.8052 B( 18-O , 20-H ) :   0.7513 B( 21-O , 22-H ) :   0.8140
B( 21-O , 23-H ) :   0.8577 B( 24-O , 25-H ) :   0.8039 B( 24-O , 26-H ) :   0.8118

MP2 TOTAL ENERGY:     -686.925182942 Eh
FINAL SINGLE POINT ENERGY      -686.925182942468

DIPOLE MOMENT
-------------
                                X             Y             Z
Electronic contribution:     -0.24228      -0.01989       0.28923
Nuclear contribution   :     -0.56566      -0.45497       1.95129
                        -----------------------------------------
Total Dipole Moment    :     -0.80793      -0.47486       2.24052
                        -----------------------------------------
Magnitude (a.u.)       :      2.42862
Magnitude (Debye)      :      6.17306

Rotational constants in cm-1:     0.028104     0.018478     0.014726
Rotational constants in MHz :   842.535993   553.948962   441.464063

                             ****ORCA TERMINATED NORMALLY****
TOTAL RUN TIME: 0 days 0 hours 5 minutes 5 seconds 934 msec
