                         Program Version 4.2.0 -  RELEASE  -
|  1> ! MP2 def2-TZVP EnGrad TightSCF FrozenCore
|  2>
|  3> %pal
|  4>     nprocs 12
|  5> end
|  6>
|  7> %maxcore 8000
|  8>
|  9> %scf
| 10>     ConvForced true
| 11> end
| 12>
| 13> *xyz 0 1
| 14> O    -2.6181052806     1.3610246562    -1.1864268099
| 15> H    -1.6336582111     1.3244726598    -1.0887610076
| 16> C    -2.9272787526     1.3182112982    -2.570360575
| 17> H    -4.0168738048     1.332473479     -2.666896348
| 18> H    -2.5498313414     0.4075412639    -3.0593074659
| 19> H    -2.5221819602     2.1905275038    -3.1038218512
| 20> O     0.0830926389     1.1772592364    -0.8159390853
| 21> H     0.1762404174     0.3023092323    -0.3540989804
| 22> C     0.5404026419     2.1889235562     0.0772082273
| 23> H     0.5242594271     3.1392168257    -0.4643380537
| 24> H     1.5669904777     1.989609668      0.4107376448
| 25> H    -0.1068048554     2.2829279153     0.9612625087
| 26> O     0.5002380198    -1.1850197373     0.4428353016
| 27> H     1.3791472636    -1.461534239      0.0832262461
| 28> C    -0.4475795818    -2.2453151271     0.2750785512
| 29> H    -1.441398108     -1.8388105882     0.4801658553
| 30> H    -0.2376444195    -3.0705727207     0.9690910159
| 31> H    -0.432557952     -2.6383996131    -0.7508180577
| 32> O     3.0309306634    -1.4165057123    -0.5429111245
| 33> H     3.3569273324    -0.7736012952     0.1252462696
| 34> C     2.9804809386    -0.7499877034    -1.8064566071
| 35> H     2.6913006407    -1.4961268025    -2.5515357616
| 36> H     3.9644772837    -0.349375426     -2.0854874539
| 37> H     2.2415191881     0.0618350377    -1.814270172
| 38> O    -3.5089697816    -0.756878682      0.3691313662
| 39> H    -3.2282851416    -0.016731009     -0.2173018759
| 40> C    -4.126849913     -0.1845899443     1.5021064116
| 41> H    -4.4321805613    -1.0019741699     2.1644182336
| 42> H    -5.0279908485     0.3958278569     1.2448320012
| 43> H    -3.4529487828     0.4774585445     2.0712827571
| 44> O     3.5181203614     0.4096609723     1.5023688561
| 45> H     4.3955089375     0.7166199999     1.7761439004
| 46> C     2.8027131487    -0.0334032455     2.6661454781
| 47> H     1.8480209902    -0.4205124808     2.3057788442
| 48> H     2.6217838689     0.7991348595     3.3574165623
| 49> H     3.3423962986    -0.831675374      3.1922382376
| 50> *
| 51>
| 52>                          ****END OF INPUT****

CARTESIAN COORDINATES (ANGSTROEM)
---------------------------------
  O     -2.618105    1.361025   -1.186427
  H     -1.633658    1.324473   -1.088761
  C     -2.927279    1.318211   -2.570361
  H     -4.016874    1.332473   -2.666896
  H     -2.549831    0.407541   -3.059307
  H     -2.522182    2.190528   -3.103822
  O      0.083093    1.177259   -0.815939
  H      0.176240    0.302309   -0.354099
  C      0.540403    2.188924    0.077208
  H      0.524259    3.139217   -0.464338
  H      1.566990    1.989610    0.410738
  H     -0.106805    2.282928    0.961263
  O      0.500238   -1.185020    0.442835
  H      1.379147   -1.461534    0.083226
  C     -0.447580   -2.245315    0.275079
  H     -1.441398   -1.838811    0.480166
  H     -0.237644   -3.070573    0.969091
  H     -0.432558   -2.638400   -0.750818
  O      3.030931   -1.416506   -0.542911
  H      3.356927   -0.773601    0.125246
  C      2.980481   -0.749988   -1.806457
  H      2.691301   -1.496127   -2.551536
  H      3.964477   -0.349375   -2.085487
  H      2.241519    0.061835   -1.814270
  O     -3.508970   -0.756879    0.369131
  H     -3.228285   -0.016731   -0.217302
  C     -4.126850   -0.184590    1.502106
  H     -4.432181   -1.001974    2.164418
  H     -5.027991    0.395828    1.244832
  H     -3.452949    0.477459    2.071283
  O      3.518120    0.409661    1.502369
  H      4.395509    0.716620    1.776144
  C      2.802713   -0.033403    2.666145
  H      1.848021   -0.420512    2.305779
  H      2.621784    0.799135    3.357417
  H      3.342396   -0.831675    3.192238

 Total Charge           Charge          ....    0
 Multiplicity           Mult            ....    1
 Number of Electrons    NEL             ....  108
 Basis Dimension        Dim             ....  516

ORBITAL ENERGIES
----------------

  NO   OCC          E(Eh)            E(eV)
   0   2.0000     -20.590634      -560.2996
   1   2.0000     -20.556504      -559.3709
   2   2.0000     -20.548907      -559.1642
   3   2.0000     -20.545503      -559.0716
   4   2.0000     -20.536628      -558.8301
   5   2.0000     -20.514620      -558.2312
   6   2.0000     -11.286813      -307.1298
   7   2.0000     -11.268987      -306.6447
   8   2.0000     -11.264521      -306.5232
   9   2.0000     -11.259015      -306.3734
  10   2.0000     -11.255217      -306.2700
  11   2.0000     -11.245804      -306.0139
  12   2.0000      -1.386286       -37.7228
  13   2.0000      -1.361023       -37.0353
  14   2.0000      -1.351914       -36.7874
  15   2.0000      -1.340819       -36.4856
  16   2.0000      -1.332615       -36.2623
  17   2.0000      -1.315486       -35.7962
  18   2.0000      -0.943313       -25.6689
  19   2.0000      -0.922646       -25.1065
  20   2.0000      -0.916989       -24.9526
  21   2.0000      -0.910125       -24.7657
  22   2.0000      -0.907225       -24.6868
  23   2.0000      -0.891613       -24.2620
  24   2.0000      -0.725301       -19.7365
  25   2.0000      -0.702516       -19.1164
  26   2.0000      -0.692687       -18.8490
  27   2.0000      -0.686844       -18.6900
  28   2.0000      -0.676858       -18.4183
  29   2.0000      -0.662471       -18.0267
  30   2.0000      -0.639502       -17.4017
  31   2.0000      -0.618231       -16.8229
  32   2.0000      -0.617330       -16.7984
  33   2.0000      -0.606946       -16.5158
  34   2.0000      -0.603832       -16.4311
  35   2.0000      -0.602318       -16.3899
  36   2.0000      -0.592934       -16.1345
  37   2.0000      -0.590548       -16.0696
  38   2.0000      -0.584755       -15.9120
  39   2.0000      -0.580236       -15.7890
  40   2.0000      -0.577507       -15.7148
  41   2.0000      -0.561080       -15.2678
  42   2.0000      -0.532689       -14.4952
  43   2.0000      -0.513947       -13.9852
  44   2.0000      -0.503581       -13.7031
  45   2.0000      -0.492611       -13.4046
  46   2.0000      -0.486725       -13.2445
  47   2.0000      -0.477580       -12.9956
  48   2.0000      -0.470256       -12.7963
  49   2.0000      -0.451235       -12.2787
  50   2.0000      -0.442452       -12.0397
  51   2.0000      -0.437087       -11.8937
  52   2.0000      -0.430949       -11.7267
  53   2.0000      -0.413671       -11.2565
  54   0.0000       0.112950         3.0735
  55   0.0000       0.139071         3.7843
  56   0.0000       0.151542         4.1237
  57   0.0000       0.164017         4.4631
  58   0.0000       0.168477         4.5845

MULLIKEN ATOMIC CHARGES
-----------------------
   0 O :   -0.559167
   1 H :    0.365737
   2 C :   -0.166354
   3 H :    0.126227
   4 H :    0.113430
   5 H :    0.113828
   6 O :   -0.571869
   7 H :    0.378355
   8 C :   -0.190996
   9 H :    0.127608
  10 H :    0.133951
  11 H :    0.123346
  12 O :   -0.578685
  13 H :    0.370836
  14 C :   -0.191955
  15 H :    0.175466
  16 H :    0.112065
  17 H :    0.112549
  18 O :   -0.539642
  19 H :    0.356425
  20 C :   -0.204335
  21 H :    0.131417
  22 H :    0.116547
  23 H :    0.143440
  24 O :   -0.534069
  25 H :    0.350626
  26 C :   -0.154328
  27 H :    0.114917
  28 H :    0.103073
  29 H :    0.095729
  30 O :   -0.536880
  31 H :    0.336435
  32 C :   -0.203260
  33 H :    0.175079
  34 H :    0.125003
  35 H :    0.129451
Sum of atomic charges:   -0.0000000

LOEWDIN ATOMIC CHARGES
----------------------
   0 O :   -0.091453
   1 H :    0.164864
   2 C :   -0.389988
   3 H :    0.108469
   4 H :    0.098159
   5 H :    0.100323
   6 O :   -0.091693
   7 H :    0.164029
   8 C :   -0.390249
   9 H :    0.108310
  10 H :    0.102445
  11 H :    0.101186
  12 O :   -0.090609
  13 H :    0.164371
  14 C :   -0.377001
  15 H :    0.115807
  16 H :    0.099855
  17 H :    0.100047
  18 O :   -0.089797
  19 H :    0.164603
  20 C :   -0.382560
  21 H :    0.110295
  22 H :    0.101034
  23 H :    0.102390
  24 O :   -0.101849
  25 H :    0.162618
  26 C :   -0.403057
  27 H :    0.103977
  28 H :    0.095724
  29 H :    0.092062
  30 O :   -0.089273
  31 H :    0.179973
  32 C :   -0.366461
  33 H :    0.116953
  34 H :    0.103590
  35 H :    0.102906

  Mayer bond orders larger than 0.100000
B(  0-O ,  1-H ) :   0.7514 B(  0-O ,  2-C ) :   0.8963 B(  1-H ,  6-O ) :   0.1064
B(  2-C ,  3-H ) :   0.9419 B(  2-C ,  4-H ) :   0.9399 B(  2-C ,  5-H ) :   0.9381
B(  6-O ,  7-H ) :   0.7330 B(  6-O ,  8-C ) :   0.8773 B(  7-H , 12-O ) :   0.1143
B(  8-C ,  9-H ) :   0.9417 B(  8-C , 10-H ) :   0.9318 B(  8-C , 11-H ) :   0.9410
B( 12-O , 13-H ) :   0.7480 B( 12-O , 14-C ) :   0.8551 B( 13-H , 18-O ) :   0.1029
B( 14-C , 15-H ) :   0.9204 B( 14-C , 16-H ) :   0.9410 B( 14-C , 17-H ) :   0.9396
B( 18-O , 19-H ) :   0.7870 B( 18-O , 20-C ) :   0.8735 B( 20-C , 21-H ) :   0.9433
B( 20-C , 22-H ) :   0.9409 B( 20-C , 23-H ) :   0.9245 B( 24-O , 25-H ) :   0.7763
B( 24-O , 26-C ) :   0.9307 B( 26-C , 27-H ) :   0.9427 B( 26-C , 28-H ) :   0.9375
B( 26-C , 29-H ) :   0.9379 B( 30-O , 31-H ) :   0.8357 B( 30-O , 32-C ) :   0.8423
B( 32-C , 33-H ) :   0.9259 B( 32-C , 34-H ) :   0.9351 B( 32-C , 35-H ) :   0.9356

MP2 TOTAL ENERGY:     -693.114259410 Eh
FINAL SINGLE POINT ENERGY      -693.114259409817

DIPOLE MOMENT
-------------
                                X             Y             Z
Electronic contribution:      2.91123      -1.01002      -0.40572
Nuclear contribution   :     -1.01065       1.59750       1.03558
                        -----------------------------------------
Total Dipole Moment    :      1.90057       0.58748       0.62986
                        -----------------------------------------
Magnitude (a.u.)       :      2.08663
Magnitude (Debye)      :      5.30380

Rotational constants in cm-1:     0.024794     0.010101     0.009354
Rotational constants in MHz :   743.319555   302.809924   280.431805

                             ****ORCA TERMINATED NORMALLY****
TOTAL RUN TIME: 0 days 0 hours 11 minutes 3 seconds 413 msec
