                         Program Version 4.2.0 -  RELEASE  -
|  1> # 12h2o.su.etal.mol0,3,4,6,11
|  2> ! MP2 def2-TZVP EnGrad TightSCF
|  3>
|  4> %pal
|  5>     nprocs 6
|  6> end
|  7>
|  8> %maxcore 8000
|  9>
| 10> %scf
| 11>     ConvForced true
| 12> end
| 13>
| 14> *xyz 0 1
| 15> O   1.794470000   0.923410000   2.768350000
| 16> H   2.338250000   1.359750000   3.430940000
| 17> H   0.879480000   1.303000000   2.865760000
| 18> O  -1.752130000  -0.741530000  -2.896280000
| 19> H  -2.036450000  -0.920500000  -1.984040000
| 20> H  -0.921210000  -1.242140000  -2.984230000
| 21> O  -0.885520000   1.737840000   0.052730000
| 22> H  -1.032320000   2.090180000  -0.841890000
| 23> H  -1.284090000   0.839590000   0.017130000
| 24> O   1.737840000   0.885520000  -0.052730000
| 25> H   2.090180000   1.032320000   0.841890000
| 26> H   0.839590000   1.284090000  -0.017130000
| 27> O  -0.741530000   1.752130000   2.896280000
| 28> H  -0.920500000   2.036450000   1.984040000
| 29> H  -1.242140000   0.921210000   2.984230000
| 30> *
| 31>
| 32>                          ****END OF INPUT****

CARTESIAN COORDINATES (ANGSTROEM)
---------------------------------
  O      1.794470    0.923410    2.768350
  H      2.338250    1.359750    3.430940
  H      0.879480    1.303000    2.865760
  O     -1.752130   -0.741530   -2.896280
  H     -2.036450   -0.920500   -1.984040
  H     -0.921210   -1.242140   -2.984230
  O     -0.885520    1.737840    0.052730
  H     -1.032320    2.090180   -0.841890
  H     -1.284090    0.839590    0.017130
  O      1.737840    0.885520   -0.052730
  H      2.090180    1.032320    0.841890
  H      0.839590    1.284090   -0.017130
  O     -0.741530    1.752130    2.896280
  H     -0.920500    2.036450    1.984040
  H     -1.242140    0.921210    2.984230

 Total Charge           Charge          ....    0
 Multiplicity           Mult            ....    1
 Number of Electrons    NEL             ....   50
 Basis Dimension        Dim             ....  215

ORBITAL ENERGIES
----------------

  NO   OCC          E(Eh)            E(eV)
   0   2.0000     -20.623610      -561.1970
   1   2.0000     -20.588323      -560.2368
   2   2.0000     -20.580898      -560.0347
   3   2.0000     -20.534209      -558.7642
   4   2.0000     -20.498822      -557.8013
   5   2.0000      -1.406861       -38.2826
   6   2.0000      -1.376159       -37.4472
   7   2.0000      -1.359812       -37.0024
   8   2.0000      -1.319054       -35.8933
   9   2.0000      -1.283127       -34.9157
  10   2.0000      -0.766725       -20.8637
  11   2.0000      -0.737794       -20.0764
  12   2.0000      -0.722681       -19.6652
  13   2.0000      -0.704396       -19.1676
  14   2.0000      -0.674666       -18.3586
  15   2.0000      -0.648916       -17.6579
  16   2.0000      -0.606483       -16.5032
  17   2.0000      -0.597069       -16.2471
  18   2.0000      -0.583574       -15.8799
  19   2.0000      -0.556739       -15.1496
  20   2.0000      -0.524485       -14.2720
  21   2.0000      -0.521287       -14.1849
  22   2.0000      -0.514783       -14.0079
  23   2.0000      -0.479586       -13.0502
  24   2.0000      -0.449674       -12.2362
  25   0.0000       0.072990         1.9862
  26   0.0000       0.123513         3.3610
  27   0.0000       0.148121         4.0306
  28   0.0000       0.160865         4.3774
  29   0.0000       0.173545         4.7224

MULLIKEN ATOMIC CHARGES
-----------------------
   0 O :   -0.733690
   1 H :    0.332548
   2 H :    0.366510
   3 O :   -0.671173
   4 H :    0.323134
   5 H :    0.352738
   6 O :   -0.705977
   7 H :    0.381392
   8 H :    0.349405
   9 O :   -0.734628
  10 H :    0.365873
  11 H :    0.329633
  12 O :   -0.688127
  13 H :    0.385951
  14 H :    0.346412
Sum of atomic charges:   -0.0000000

LOEWDIN ATOMIC CHARGES
----------------------
   0 O :   -0.340857
   1 H :    0.151522
   2 H :    0.142879
   3 O :   -0.328121
   4 H :    0.157539
   5 H :    0.174059
   6 O :   -0.276388
   7 H :    0.183150
   8 H :    0.175232
   9 O :   -0.372500
  10 H :    0.146209
  11 H :    0.130554
  12 O :   -0.272296
  13 H :    0.158408
  14 H :    0.170612

  Mayer bond orders larger than 0.100000
B(  0-O ,  1-H ) :   0.8527 B(  0-O ,  2-H ) :   0.7693 B(  3-O ,  4-H ) :   0.8600
B(  3-O ,  5-H ) :   0.8433 B(  6-O ,  7-H ) :   0.8209 B(  6-O ,  8-H ) :   0.8330
B(  9-O , 10-H ) :   0.8163 B(  9-O , 11-H ) :   0.8323 B( 12-O , 13-H ) :   0.8052
B( 12-O , 14-H ) :   0.8441

MP2 TOTAL ENERGY:     -381.591539791 Eh
FINAL SINGLE POINT ENERGY      -381.591539791089

DIPOLE MOMENT
-------------
                                X             Y             Z
Electronic contribution:     -0.24295       0.19849      -0.14646
Nuclear contribution   :     -1.32801      -0.34193       0.63259
                        -----------------------------------------
Total Dipole Moment    :     -1.57096      -0.14343       0.48613
                        -----------------------------------------
Magnitude (a.u.)       :      1.65070
Magnitude (Debye)      :      4.19574

Rotational constants in cm-1:     0.103460     0.030905     0.025936
Rotational constants in MHz :  3101.646622   926.506328   777.542046

                             ****ORCA TERMINATED NORMALLY****
TOTAL RUN TIME: 0 days 0 hours 0 minutes 34 seconds 405 msec
