                         Program Version 4.2.0 -  RELEASE  -
|  1> # 12h2o.su.etal.mol3,8
|  2> ! MP2 def2-TZVP EnGrad TightSCF
|  3>
|  4> %pal
|  5>     nprocs 6
|  6> end
|  7>
|  8> %maxcore 8000
|  9>
| 10> %scf
| 11>     ConvForced true
| 12> end
| 13>
| 14> *xyz 0 1
| 15> O  -1.752130000  -0.741530000  -2.896280000
| 16> H  -2.036450000  -0.920500000  -1.984040000
| 17> H  -0.921210000  -1.242140000  -2.984230000
| 18> O   1.752130000   0.741530000  -2.896280000
| 19> H   2.036450000   0.920500000  -1.984040000
| 20> H   0.921210000   1.242140000  -2.984230000
| 21> *
| 22>
| 23>                          ****END OF INPUT****

CARTESIAN COORDINATES (ANGSTROEM)
---------------------------------
  O     -1.752130   -0.741530   -2.896280
  H     -2.036450   -0.920500   -1.984040
  H     -0.921210   -1.242140   -2.984230
  O      1.752130    0.741530   -2.896280
  H      2.036450    0.920500   -1.984040
  H      0.921210    1.242140   -2.984230

 Total Charge           Charge          ....    0
 Multiplicity           Mult            ....    1
 Number of Electrons    NEL             ....   20
 Basis Dimension        Dim             ....   86

ORBITAL ENERGIES
----------------

  NO   OCC          E(Eh)            E(eV)
   0   2.0000     -20.564085      -559.5772
   1   2.0000     -20.564085      -559.5772
   2   2.0000      -1.343633       -36.5621
   3   2.0000      -1.342884       -36.5417
   4   2.0000      -0.707062       -19.2401
   5   2.0000      -0.704602       -19.1732
   6   2.0000      -0.581326       -15.8187
   7   2.0000      -0.580753       -15.8031
   8   2.0000      -0.511334       -13.9141
   9   2.0000      -0.505270       -13.7491
  10   0.0000       0.112575         3.0633
  11   0.0000       0.148597         4.0435
  12   0.0000       0.205036         5.5793
  13   0.0000       0.205535         5.5929
  14   0.0000       0.509524        13.8649

MULLIKEN ATOMIC CHARGES
-----------------------
   0 O :   -0.681194
   1 H :    0.335452
   2 H :    0.345742
   3 O :   -0.681194
   4 H :    0.335452
   5 H :    0.345742
Sum of atomic charges:    0.0000000

LOEWDIN ATOMIC CHARGES
----------------------
   0 O :   -0.332697
   1 H :    0.164549
   2 H :    0.168148
   3 O :   -0.332697
   4 H :    0.164549
   5 H :    0.168148

  Mayer bond orders larger than 0.100000
B(  0-O ,  1-H ) :   0.8539 B(  0-O ,  2-H ) :   0.8447 B(  3-O ,  4-H ) :   0.8539
B(  3-O ,  5-H ) :   0.8447

MP2 TOTAL ENERGY:     -152.628827062 Eh
FINAL SINGLE POINT ENERGY      -152.628827061635

DIPOLE MOMENT
-------------
                                X             Y             Z
Electronic contribution:     -0.00000      -0.00000      -0.22942
Nuclear contribution   :     -0.00000       0.00000       1.37221
                        -----------------------------------------
Total Dipole Moment    :     -0.00000      -0.00000       1.14279
                        -----------------------------------------
Magnitude (a.u.)       :      1.14279
Magnitude (Debye)      :      2.90475

Rotational constants in cm-1:     5.975135     0.128963     0.128557
Rotational constants in MHz : 179130.055173  3866.200348  3854.054209

                             ****ORCA TERMINATED NORMALLY****
TOTAL RUN TIME: 0 days 0 hours 0 minutes 6 seconds 521 msec
