                         Program Version 4.2.0 -  RELEASE  -
|  1> # 12h2o.su.etal.mol0,1,3,4,7,10,11
|  2> ! MP2 def2-TZVP EnGrad TightSCF
|  3>
|  4> %pal
|  5>     nprocs 6
|  6> end
|  7>
|  8> %maxcore 8000
|  9>
| 10> %scf
| 11>     ConvForced true
| 12> end
| 13>
| 14> *xyz 0 1
| 15> O   1.794470000   0.923410000   2.768350000
| 16> H   2.338250000   1.359750000   3.430940000
| 17> H   0.879480000   1.303000000   2.865760000
| 18> O  -1.794470000  -0.923410000   2.768350000
| 19> H  -2.338250000  -1.359750000   3.430940000
| 20> H  -0.879480000  -1.303000000   2.865760000
| 21> O  -1.752130000  -0.741530000  -2.896280000
| 22> H  -2.036450000  -0.920500000  -1.984040000
| 23> H  -0.921210000  -1.242140000  -2.984230000
| 24> O  -0.885520000   1.737840000   0.052730000
| 25> H  -1.032320000   2.090180000  -0.841890000
| 26> H  -1.284090000   0.839590000   0.017130000
| 27> O  -1.737840000  -0.885520000  -0.052730000
| 28> H  -2.090180000  -1.032320000   0.841890000
| 29> H  -0.839590000  -1.284090000  -0.017130000
| 30> O  -0.923410000   1.794470000  -2.768350000
| 31> H  -1.359750000   2.338250000  -3.430940000
| 32> H  -1.303000000   0.879480000  -2.865760000
| 33> O  -0.741530000   1.752130000   2.896280000
| 34> H  -0.920500000   2.036450000   1.984040000
| 35> H  -1.242140000   0.921210000   2.984230000
| 36> *
| 37>
| 38>                          ****END OF INPUT****

CARTESIAN COORDINATES (ANGSTROEM)
---------------------------------
  O      1.794470    0.923410    2.768350
  H      2.338250    1.359750    3.430940
  H      0.879480    1.303000    2.865760
  O     -1.794470   -0.923410    2.768350
  H     -2.338250   -1.359750    3.430940
  H     -0.879480   -1.303000    2.865760
  O     -1.752130   -0.741530   -2.896280
  H     -2.036450   -0.920500   -1.984040
  H     -0.921210   -1.242140   -2.984230
  O     -0.885520    1.737840    0.052730
  H     -1.032320    2.090180   -0.841890
  H     -1.284090    0.839590    0.017130
  O     -1.737840   -0.885520   -0.052730
  H     -2.090180   -1.032320    0.841890
  H     -0.839590   -1.284090   -0.017130
  O     -0.923410    1.794470   -2.768350
  H     -1.359750    2.338250   -3.430940
  H     -1.303000    0.879480   -2.865760
  O     -0.741530    1.752130    2.896280
  H     -0.920500    2.036450    1.984040
  H     -1.242140    0.921210    2.984230

 Total Charge           Charge          ....    0
 Multiplicity           Mult            ....    1
 Number of Electrons    NEL             ....   70
 Basis Dimension        Dim             ....  301

ORBITAL ENERGIES
----------------

  NO   OCC          E(Eh)            E(eV)
   0   2.0000     -20.629453      -561.3560
   1   2.0000     -20.605465      -560.7032
   2   2.0000     -20.583082      -560.0941
   3   2.0000     -20.534703      -558.7777
   4   2.0000     -20.533593      -558.7475
   5   2.0000     -20.513926      -558.2123
   6   2.0000     -20.501633      -557.8778
   7   2.0000      -1.410792       -38.3896
   8   2.0000      -1.391181       -37.8560
   9   2.0000      -1.370660       -37.2976
  10   2.0000      -1.328689       -36.1555
  11   2.0000      -1.318765       -35.8854
  12   2.0000      -1.297999       -35.3204
  13   2.0000      -1.282884       -34.9091
  14   2.0000      -0.775681       -21.1074
  15   2.0000      -0.756681       -20.5903
  16   2.0000      -0.731393       -19.9022
  17   2.0000      -0.703216       -19.1355
  18   2.0000      -0.697763       -18.9871
  19   2.0000      -0.683004       -18.5855
  20   2.0000      -0.669307       -18.2128
  21   2.0000      -0.656836       -17.8734
  22   2.0000      -0.631817       -17.1926
  23   2.0000      -0.603237       -16.4149
  24   2.0000      -0.592651       -16.1269
  25   2.0000      -0.575578       -15.6623
  26   2.0000      -0.558044       -15.1851
  27   2.0000      -0.551478       -15.0065
  28   2.0000      -0.529018       -14.3953
  29   2.0000      -0.519150       -14.1268
  30   2.0000      -0.513913       -13.9843
  31   2.0000      -0.481386       -13.0992
  32   2.0000      -0.474693       -12.9171
  33   2.0000      -0.464797       -12.6478
  34   2.0000      -0.452301       -12.3077
  35   0.0000       0.080510         2.1908
  36   0.0000       0.115069         3.1312
  37   0.0000       0.151467         4.1216
  38   0.0000       0.166437         4.5290
  39   0.0000       0.180354         4.9077

MULLIKEN ATOMIC CHARGES
-----------------------
   0 O :   -0.744565
   1 H :    0.320237
   2 H :    0.370732
   3 O :   -0.723901
   4 H :    0.370756
   5 H :    0.379592
   6 O :   -0.692068
   7 H :    0.386481
   8 H :    0.348420
   9 O :   -0.740779
  10 H :    0.371890
  11 H :    0.337591
  12 O :   -0.722826
  13 H :    0.390452
  14 H :    0.355569
  15 O :   -0.733203
  16 H :    0.332594
  17 H :    0.369839
  18 O :   -0.717439
  19 H :    0.390470
  20 H :    0.350159
Sum of atomic charges:   -0.0000000

LOEWDIN ATOMIC CHARGES
----------------------
   0 O :   -0.379697
   1 H :    0.145838
   2 H :    0.141709
   3 O :   -0.287582
   4 H :    0.171173
   5 H :    0.195665
   6 O :   -0.274418
   7 H :    0.157566
   8 H :    0.171482
   9 O :   -0.346557
  10 H :    0.150715
  11 H :    0.135050
  12 O :   -0.284056
  13 H :    0.157869
  14 H :    0.177868
  15 O :   -0.339731
  16 H :    0.151838
  17 H :    0.143645
  18 O :   -0.289688
  19 H :    0.158628
  20 H :    0.142684

  Mayer bond orders larger than 0.100000
B(  0-O ,  1-H ) :   0.8632 B(  0-O ,  2-H ) :   0.7677 B(  2-H , 18-O ) :   0.1038
B(  3-O ,  4-H ) :   0.8286 B(  3-O ,  5-H ) :   0.8124 B(  6-O ,  7-H ) :   0.8027
B(  6-O ,  8-H ) :   0.8428 B(  9-O , 10-H ) :   0.8053 B(  9-O , 11-H ) :   0.8059
B( 12-O , 13-H ) :   0.7933 B( 12-O , 14-H ) :   0.8323 B( 15-O , 16-H ) :   0.8529
B( 15-O , 17-H ) :   0.7668 B( 18-O , 19-H ) :   0.7896 B( 18-O , 20-H ) :   0.8283

MP2 TOTAL ENERGY:     -534.253492641 Eh
FINAL SINGLE POINT ENERGY      -534.253492641137

DIPOLE MOMENT
-------------
                                X             Y             Z
Electronic contribution:     -0.41877      -0.15694      -0.17205
Nuclear contribution   :     -0.78939      -2.23794       0.63259
                        -----------------------------------------
Total Dipole Moment    :     -1.20816      -2.39489       0.46055
                        -----------------------------------------
Magnitude (a.u.)       :      2.72162
Magnitude (Debye)      :      6.91781

Rotational constants in cm-1:     0.051263     0.020552     0.017020
Rotational constants in MHz :  1536.836647   616.128860   510.250900

                             ****ORCA TERMINATED NORMALLY****
TOTAL RUN TIME: 0 days 0 hours 1 minutes 51 seconds 256 msec
