                         Program Version 4.2.0 -  RELEASE  -
|  1> # 12h2o.su.etal.mol0,2,3,4,6,7,8,9,11
|  2> ! MP2 def2-TZVP EnGrad TightSCF
|  3>
|  4> %pal
|  5>     nprocs 6
|  6> end
|  7>
|  8> %maxcore 8000
|  9>
| 10> %scf
| 11>     ConvForced true
| 12> end
| 13>
| 14> *xyz 0 1
| 15> O   1.794470000   0.923410000   2.768350000
| 16> H   2.338250000   1.359750000   3.430940000
| 17> H   0.879480000   1.303000000   2.865760000
| 18> O   0.923410000  -1.794470000  -2.768350000
| 19> H   1.359750000  -2.338250000  -3.430940000
| 20> H   1.303000000  -0.879480000  -2.865760000
| 21> O  -1.752130000  -0.741530000  -2.896280000
| 22> H  -2.036450000  -0.920500000  -1.984040000
| 23> H  -0.921210000  -1.242140000  -2.984230000
| 24> O  -0.885520000   1.737840000   0.052730000
| 25> H  -1.032320000   2.090180000  -0.841890000
| 26> H  -1.284090000   0.839590000   0.017130000
| 27> O   1.737840000   0.885520000  -0.052730000
| 28> H   2.090180000   1.032320000   0.841890000
| 29> H   0.839590000   1.284090000  -0.017130000
| 30> O  -1.737840000  -0.885520000  -0.052730000
| 31> H  -2.090180000  -1.032320000   0.841890000
| 32> H  -0.839590000  -1.284090000  -0.017130000
| 33> O   1.752130000   0.741530000  -2.896280000
| 34> H   2.036450000   0.920500000  -1.984040000
| 35> H   0.921210000   1.242140000  -2.984230000
| 36> O   0.741530000  -1.752130000   2.896280000
| 37> H   0.920500000  -2.036450000   1.984040000
| 38> H   1.242140000  -0.921210000   2.984230000
| 39> O  -0.741530000   1.752130000   2.896280000
| 40> H  -0.920500000   2.036450000   1.984040000
| 41> H  -1.242140000   0.921210000   2.984230000
| 42> *
| 43>
| 44>                          ****END OF INPUT****

CARTESIAN COORDINATES (ANGSTROEM)
---------------------------------
  O      1.794470    0.923410    2.768350
  H      2.338250    1.359750    3.430940
  H      0.879480    1.303000    2.865760
  O      0.923410   -1.794470   -2.768350
  H      1.359750   -2.338250   -3.430940
  H      1.303000   -0.879480   -2.865760
  O     -1.752130   -0.741530   -2.896280
  H     -2.036450   -0.920500   -1.984040
  H     -0.921210   -1.242140   -2.984230
  O     -0.885520    1.737840    0.052730
  H     -1.032320    2.090180   -0.841890
  H     -1.284090    0.839590    0.017130
  O      1.737840    0.885520   -0.052730
  H      2.090180    1.032320    0.841890
  H      0.839590    1.284090   -0.017130
  O     -1.737840   -0.885520   -0.052730
  H     -2.090180   -1.032320    0.841890
  H     -0.839590   -1.284090   -0.017130
  O      1.752130    0.741530   -2.896280
  H      2.036450    0.920500   -1.984040
  H      0.921210    1.242140   -2.984230
  O      0.741530   -1.752130    2.896280
  H      0.920500   -2.036450    1.984040
  H      1.242140   -0.921210    2.984230
  O     -0.741530    1.752130    2.896280
  H     -0.920500    2.036450    1.984040
  H     -1.242140    0.921210    2.984230

 Total Charge           Charge          ....    0
 Multiplicity           Mult            ....    1
 Number of Electrons    NEL             ....   90
 Basis Dimension        Dim             ....  387

ORBITAL ENERGIES
----------------

  NO   OCC          E(Eh)            E(eV)
   0   2.0000     -20.628579      -561.3322
   1   2.0000     -20.604711      -560.6827
   2   2.0000     -20.598149      -560.5041
   3   2.0000     -20.574778      -559.8682
   4   2.0000     -20.568814      -559.7059
   5   2.0000     -20.551413      -559.2324
   6   2.0000     -20.544578      -559.0464
   7   2.0000     -20.539318      -558.9032
   8   2.0000     -20.519518      -558.3645
   9   2.0000      -1.413654       -38.4675
  10   2.0000      -1.394426       -37.9443
  11   2.0000      -1.384545       -37.6754
  12   2.0000      -1.360967       -37.0338
  13   2.0000      -1.359073       -36.9823
  14   2.0000      -1.333110       -36.2758
  15   2.0000      -1.329072       -36.1659
  16   2.0000      -1.322843       -35.9964
  17   2.0000      -1.303613       -35.4731
  18   2.0000      -0.768596       -20.9146
  19   2.0000      -0.762779       -20.7563
  20   2.0000      -0.746077       -20.3018
  21   2.0000      -0.741917       -20.1886
  22   2.0000      -0.721558       -19.6346
  23   2.0000      -0.708160       -19.2700
  24   2.0000      -0.706621       -19.2281
  25   2.0000      -0.701774       -19.0963
  26   2.0000      -0.687684       -18.7128
  27   2.0000      -0.659705       -17.9515
  28   2.0000      -0.637963       -17.3598
  29   2.0000      -0.622969       -16.9519
  30   2.0000      -0.614596       -16.7240
  31   2.0000      -0.601743       -16.3742
  32   2.0000      -0.585571       -15.9342
  33   2.0000      -0.571951       -15.5636
  34   2.0000      -0.569856       -15.5066
  35   2.0000      -0.559563       -15.2265
  36   2.0000      -0.540721       -14.7138
  37   2.0000      -0.537239       -14.6190
  38   2.0000      -0.535975       -14.5846
  39   2.0000      -0.519627       -14.1398
  40   2.0000      -0.507155       -13.8004
  41   2.0000      -0.498908       -13.5760
  42   2.0000      -0.495677       -13.4880
  43   2.0000      -0.487673       -13.2703
  44   2.0000      -0.469183       -12.7671
  45   0.0000       0.072024         1.9599
  46   0.0000       0.112896         3.0720
  47   0.0000       0.132612         3.6086
  48   0.0000       0.133368         3.6291
  49   0.0000       0.161486         4.3942

MULLIKEN ATOMIC CHARGES
-----------------------
   0 O :   -0.753854
   1 H :    0.352094
   2 H :    0.386046
   3 O :   -0.747265
   4 H :    0.338973
   5 H :    0.386443
   6 O :   -0.732523
   7 H :    0.358142
   8 H :    0.354691
   9 O :   -0.739846
  10 H :    0.368247
  11 H :    0.372121
  12 O :   -0.750434
  13 H :    0.374579
  14 H :    0.340173
  15 O :   -0.714506
  16 H :    0.365714
  17 H :    0.380275
  18 O :   -0.700030
  19 H :    0.392691
  20 H :    0.339895
  21 O :   -0.713058
  22 H :    0.328841
  23 H :    0.366881
  24 O :   -0.694965
  25 H :    0.392665
  26 H :    0.348011
Sum of atomic charges:    0.0000000

LOEWDIN ATOMIC CHARGES
----------------------
   0 O :   -0.313437
   1 H :    0.160195
   2 H :    0.146727
   3 O :   -0.344173
   4 H :    0.154741
   5 H :    0.146422
   6 O :   -0.355789
   7 H :    0.144293
   8 H :    0.144118
   9 O :   -0.295387
  10 H :    0.174626
  11 H :    0.146387
  12 O :   -0.348488
  13 H :    0.150103
  14 H :    0.134735
  15 O :   -0.271061
  16 H :    0.174248
  17 H :    0.186450
  18 O :   -0.276952
  19 H :    0.160112
  20 H :    0.165164
  21 O :   -0.347258
  22 H :    0.157192
  23 H :    0.148476
  24 O :   -0.270710
  25 H :    0.159997
  26 H :    0.169270

  Mayer bond orders larger than 0.100000
B(  0-O ,  1-H ) :   0.8394 B(  0-O ,  2-H ) :   0.7424 B(  3-O ,  4-H ) :   0.8497
B(  3-O ,  5-H ) :   0.7522 B(  6-O ,  7-H ) :   0.8378 B(  6-O ,  8-H ) :   0.8077
B(  9-O , 10-H ) :   0.8285 B(  9-O , 11-H ) :   0.7635 B( 12-O , 13-H ) :   0.8071
B( 12-O , 14-H ) :   0.7924 B( 15-O , 16-H ) :   0.8280 B( 15-O , 17-H ) :   0.8081
B( 18-O , 19-H ) :   0.7885 B( 18-O , 20-H ) :   0.8444 B( 21-O , 22-H ) :   0.8558
B( 21-O , 23-H ) :   0.8060 B( 24-O , 25-H ) :   0.7976 B( 24-O , 26-H ) :   0.8394

MP2 TOTAL ENERGY:     -686.912471106 Eh
FINAL SINGLE POINT ENERGY      -686.912471105749

DIPOLE MOMENT
-------------
                                X             Y             Z
Electronic contribution:     -0.16383       0.23763       0.21755
Nuclear contribution   :     -0.08378       0.53373       0.77428
                        -----------------------------------------
Total Dipole Moment    :     -0.24761       0.77136       0.99182
                        -----------------------------------------
Magnitude (a.u.)       :      1.28063
Magnitude (Debye)      :      3.25512

Rotational constants in cm-1:     0.029339     0.014476     0.013679
Rotational constants in MHz :   879.557452   433.993070   410.089499

                             ****ORCA TERMINATED NORMALLY****
TOTAL RUN TIME: 0 days 0 hours 4 minutes 42 seconds 826 msec
