                         Program Version 4.2.0 -  RELEASE  -
|  1> # 12mecn.remya.etal.2.mol1,4,7
|  2> ! MP2 def2-TZVP EnGrad TightSCF
|  3>
|  4> %pal
|  5>     nprocs 6
|  6> end
|  7>
|  8> %maxcore 8000
|  9>
| 10> %scf
| 11>     ConvForced true
| 12> end
| 13>
| 14> *xyz 0 1
| 15> C  -4.697980000  -0.249690000   1.746215000
| 16> H  -4.927570000   0.755530000   2.111799000
| 17> H  -3.709180000  -0.561560000   2.093253000
| 18> H  -5.432280000  -0.961520000   2.128066000
| 19> C  -4.714100000  -0.247110000   0.301670000
| 20> N  -4.729750000  -0.234960000  -0.865260000
| 21> C  -1.509690000  -0.693960000  -1.610140000
| 22> H  -1.327010000  -1.692700000  -2.017370000
| 23> H  -0.742170000  -0.000650000  -1.964400000
| 24> H  -2.491920000  -0.334310000  -1.929350000
| 25> C  -1.473570000  -0.748120000  -0.167200000
| 26> N  -1.447490000  -0.793720000   0.998938000
| 27> C   1.502241000   0.651296000   1.710523000
| 28> H   1.309219000   1.637164000   2.143202000
| 29> H   2.493408000   0.297996000   2.009069000
| 30> H   0.746597000  -0.059850000   2.055508000
| 31> C   1.447974000   0.738517000   0.269805000
| 32> N   1.405612000   0.808047000  -0.894380000
| 33> *
| 34>
| 35>                          ****END OF INPUT****

CARTESIAN COORDINATES (ANGSTROEM)
---------------------------------
  C     -4.697980   -0.249690    1.746215
  H     -4.927570    0.755530    2.111799
  H     -3.709180   -0.561560    2.093253
  H     -5.432280   -0.961520    2.128066
  C     -4.714100   -0.247110    0.301670
  N     -4.729750   -0.234960   -0.865260
  C     -1.509690   -0.693960   -1.610140
  H     -1.327010   -1.692700   -2.017370
  H     -0.742170   -0.000650   -1.964400
  H     -2.491920   -0.334310   -1.929350
  C     -1.473570   -0.748120   -0.167200
  N     -1.447490   -0.793720    0.998938
  C      1.502241    0.651296    1.710523
  H      1.309219    1.637164    2.143202
  H      2.493408    0.297996    2.009069
  H      0.746597   -0.059850    2.055508
  C      1.447974    0.738517    0.269805
  N      1.405612    0.808047   -0.894380

 Total Charge           Charge          ....    0
 Multiplicity           Mult            ....    1
 Number of Electrons    NEL             ....   66
 Basis Dimension        Dim             ....  333

ORBITAL ENERGIES
----------------

  NO   OCC          E(Eh)            E(eV)
   0   2.0000     -15.571288      -423.7163
   1   2.0000     -15.570413      -423.6925
   2   2.0000     -15.568910      -423.6516
   3   2.0000     -11.285286      -307.0882
   4   2.0000     -11.282658      -307.0167
   5   2.0000     -11.281758      -306.9922
   6   2.0000     -11.273518      -306.7680
   7   2.0000     -11.273410      -306.7651
   8   2.0000     -11.258541      -306.3605
   9   2.0000      -1.219035       -33.1716
  10   2.0000      -1.215329       -33.0708
  11   2.0000      -1.213024       -33.0081
  12   2.0000      -1.036888       -28.2152
  13   2.0000      -1.036497       -28.2045
  14   2.0000      -1.026031       -27.9197
  15   2.0000      -0.694649       -18.9024
  16   2.0000      -0.692744       -18.8505
  17   2.0000      -0.683377       -18.5956
  18   2.0000      -0.630400       -17.1540
  19   2.0000      -0.625784       -17.0284
  20   2.0000      -0.625183       -17.0121
  21   2.0000      -0.624300       -16.9881
  22   2.0000      -0.612701       -16.6724
  23   2.0000      -0.606506       -16.5039
  24   2.0000      -0.560863       -15.2619
  25   2.0000      -0.555686       -15.1210
  26   2.0000      -0.554880       -15.0991
  27   2.0000      -0.460272       -12.5246
  28   2.0000      -0.458609       -12.4794
  29   2.0000      -0.458187       -12.4679
  30   2.0000      -0.457431       -12.4473
  31   2.0000      -0.456026       -12.4091
  32   2.0000      -0.453643       -12.3443
  33   0.0000       0.126538         3.4433
  34   0.0000       0.136641         3.7182
  35   0.0000       0.156213         4.2508
  36   0.0000       0.168540         4.5862
  37   0.0000       0.173777         4.7287

MULLIKEN ATOMIC CHARGES
-----------------------
   0 C :   -0.286301
   1 H :    0.166422
   2 H :    0.201066
   3 H :    0.167446
   4 C :   -0.102371
   5 N :   -0.146176
   6 C :   -0.287109
   7 H :    0.161076
   8 H :    0.199561
   9 H :    0.200966
  10 C :   -0.052405
  11 N :   -0.221990
  12 C :   -0.283716
  13 H :    0.166366
  14 H :    0.167602
  15 H :    0.199738
  16 C :   -0.106018
  17 N :   -0.144157
Sum of atomic charges:   -0.0000000

LOEWDIN ATOMIC CHARGES
----------------------
   0 C :   -0.282925
   1 H :    0.152515
   2 H :    0.155764
   3 H :    0.150604
   4 C :   -0.208564
   5 N :    0.033096
   6 C :   -0.280143
   7 H :    0.153280
   8 H :    0.156101
   9 H :    0.156244
  10 C :   -0.198478
  11 N :    0.012975
  12 C :   -0.283060
  13 H :    0.152640
  14 H :    0.151401
  15 H :    0.155763
  16 C :   -0.210219
  17 N :    0.033006

  Mayer bond orders larger than 0.100000
B(  0-C ,  1-H ) :   0.9147 B(  0-C ,  2-H ) :   0.9038 B(  0-C ,  3-H ) :   0.9167
B(  0-C ,  4-C ) :   0.9013 B(  4-C ,  5-N ) :   2.7704 B(  6-C ,  7-H ) :   0.9102
B(  6-C ,  8-H ) :   0.9034 B(  6-C ,  9-H ) :   0.9022 B(  6-C , 10-C ) :   0.9000
B( 10-C , 11-N ) :   2.6965 B( 12-C , 13-H ) :   0.9148 B( 12-C , 14-H ) :   0.9166
B( 12-C , 15-H ) :   0.9044 B( 12-C , 16-C ) :   0.9009 B( 16-C , 17-N ) :   2.7750

MP2 TOTAL ENERGY:     -397.467789111 Eh
FINAL SINGLE POINT ENERGY      -397.467789110592

DIPOLE MOMENT
-------------
                                X             Y             Z
Electronic contribution:     -0.08871       0.08989      -3.15525
Nuclear contribution   :      0.12235      -0.13524       4.63146
                        -----------------------------------------
Total Dipole Moment    :      0.03363      -0.04535       1.47621
                        -----------------------------------------
Magnitude (a.u.)       :      1.47729
Magnitude (Debye)      :      3.75497

Rotational constants in cm-1:     0.081410     0.020170     0.017178
Rotational constants in MHz :  2440.602331   604.672446   514.997769

                             ****ORCA TERMINATED NORMALLY****
TOTAL RUN TIME: 0 days 0 hours 4 minutes 8 seconds 201 msec
