                         Program Version 4.2.0 -  RELEASE  -
|  1> # 12h2o.su.etal.mol1,2,4,5,6,8
|  2> ! MP2 def2-TZVP EnGrad TightSCF
|  3>
|  4> %pal
|  5>     nprocs 6
|  6> end
|  7>
|  8> %maxcore 8000
|  9>
| 10> %scf
| 11>     ConvForced true
| 12> end
| 13>
| 14> *xyz 0 1
| 15> O  -1.794470000  -0.923410000   2.768350000
| 16> H  -2.338250000  -1.359750000   3.430940000
| 17> H  -0.879480000  -1.303000000   2.865760000
| 18> O   0.923410000  -1.794470000  -2.768350000
| 19> H   1.359750000  -2.338250000  -3.430940000
| 20> H   1.303000000  -0.879480000  -2.865760000
| 21> O  -0.885520000   1.737840000   0.052730000
| 22> H  -1.032320000   2.090180000  -0.841890000
| 23> H  -1.284090000   0.839590000   0.017130000
| 24> O   0.885520000  -1.737840000   0.052730000
| 25> H   1.284090000  -0.839590000   0.017130000
| 26> H   1.032320000  -2.090180000  -0.841890000
| 27> O   1.737840000   0.885520000  -0.052730000
| 28> H   2.090180000   1.032320000   0.841890000
| 29> H   0.839590000   1.284090000  -0.017130000
| 30> O   1.752130000   0.741530000  -2.896280000
| 31> H   2.036450000   0.920500000  -1.984040000
| 32> H   0.921210000   1.242140000  -2.984230000
| 33> *
| 34>
| 35>                          ****END OF INPUT****

CARTESIAN COORDINATES (ANGSTROEM)
---------------------------------
  O     -1.794470   -0.923410    2.768350
  H     -2.338250   -1.359750    3.430940
  H     -0.879480   -1.303000    2.865760
  O      0.923410   -1.794470   -2.768350
  H      1.359750   -2.338250   -3.430940
  H      1.303000   -0.879480   -2.865760
  O     -0.885520    1.737840    0.052730
  H     -1.032320    2.090180   -0.841890
  H     -1.284090    0.839590    0.017130
  O      0.885520   -1.737840    0.052730
  H      1.284090   -0.839590    0.017130
  H      1.032320   -2.090180   -0.841890
  O      1.737840    0.885520   -0.052730
  H      2.090180    1.032320    0.841890
  H      0.839590    1.284090   -0.017130
  O      1.752130    0.741530   -2.896280
  H      2.036450    0.920500   -1.984040
  H      0.921210    1.242140   -2.984230

 Total Charge           Charge          ....    0
 Multiplicity           Mult            ....    1
 Number of Electrons    NEL             ....   60
 Basis Dimension        Dim             ....  258

ORBITAL ENERGIES
----------------

  NO   OCC          E(Eh)            E(eV)
   0   2.0000     -20.603016      -560.6366
   1   2.0000     -20.583654      -560.1097
   2   2.0000     -20.583376      -560.1021
   3   2.0000     -20.553686      -559.2942
   4   2.0000     -20.532852      -558.7273
   5   2.0000     -20.496029      -557.7253
   6   2.0000      -1.387262       -37.7493
   7   2.0000      -1.374739       -37.4085
   8   2.0000      -1.364736       -37.1363
   9   2.0000      -1.329044       -36.1651
  10   2.0000      -1.317558       -35.8526
  11   2.0000      -1.280099       -34.8333
  12   2.0000      -0.743417       -20.2294
  13   2.0000      -0.739950       -20.1351
  14   2.0000      -0.729881       -19.8611
  15   2.0000      -0.702492       -19.1158
  16   2.0000      -0.697223       -18.9724
  17   2.0000      -0.665787       -18.1170
  18   2.0000      -0.639540       -17.4028
  19   2.0000      -0.615196       -16.7403
  20   2.0000      -0.595700       -16.2098
  21   2.0000      -0.572653       -15.5827
  22   2.0000      -0.566341       -15.4109
  23   2.0000      -0.546783       -14.8787
  24   2.0000      -0.537759       -14.6332
  25   2.0000      -0.513857       -13.9828
  26   2.0000      -0.506713       -13.7884
  27   2.0000      -0.496974       -13.5234
  28   2.0000      -0.478045       -13.0083
  29   2.0000      -0.446973       -12.1628
  30   0.0000       0.084349         2.2952
  31   0.0000       0.130260         3.5446
  32   0.0000       0.147780         4.0213
  33   0.0000       0.158400         4.3103
  34   0.0000       0.177293         4.8244

MULLIKEN ATOMIC CHARGES
-----------------------
   0 O :   -0.692406
   1 H :    0.336693
   2 H :    0.355357
   3 O :   -0.735469
   4 H :    0.332325
   5 H :    0.367733
   6 O :   -0.685751
   7 H :    0.345143
   8 H :    0.386950
   9 O :   -0.741106
  10 H :    0.334061
  11 H :    0.364749
  12 O :   -0.736301
  13 H :    0.363626
  14 H :    0.365470
  15 O :   -0.687617
  16 H :    0.390302
  17 H :    0.336240
Sum of atomic charges:   -0.0000000

LOEWDIN ATOMIC CHARGES
----------------------
   0 O :   -0.342626
   1 H :    0.157114
   2 H :    0.185085
   3 O :   -0.341851
   4 H :    0.151311
   5 H :    0.143075
   6 O :   -0.284694
   7 H :    0.167051
   8 H :    0.191090
   9 O :   -0.374617
  10 H :    0.130712
  11 H :    0.145827
  12 O :   -0.298975
  13 H :    0.174128
  14 H :    0.145203
  15 O :   -0.272910
  16 H :    0.159613
  17 H :    0.165463

  Mayer bond orders larger than 0.100000
B(  0-O ,  1-H ) :   0.8542 B(  0-O ,  2-H ) :   0.8354 B(  3-O ,  4-H ) :   0.8529
B(  3-O ,  5-H ) :   0.7673 B(  6-O ,  7-H ) :   0.8440 B(  6-O ,  8-H ) :   0.8100
B(  9-O , 10-H ) :   0.8186 B(  9-O , 11-H ) :   0.8167 B( 12-O , 13-H ) :   0.8331
B( 12-O , 14-H ) :   0.7640 B( 15-O , 16-H ) :   0.7971 B( 15-O , 17-H ) :   0.8491

MP2 TOTAL ENERGY:     -457.921328427 Eh
FINAL SINGLE POINT ENERGY      -457.921328427279

DIPOLE MOMENT
-------------
                                X             Y             Z
Electronic contribution:     -0.14003       0.41558       0.05513
Nuclear contribution   :      0.07877       0.64943      -0.08817
                        -----------------------------------------
Total Dipole Moment    :     -0.06127       1.06501      -0.03304
                        -----------------------------------------
Magnitude (a.u.)       :      1.06728
Magnitude (Debye)      :      2.71282

Rotational constants in cm-1:     0.061437     0.027942     0.022824
Rotational constants in MHz :  1841.829723   837.679052   684.239228

                             ****ORCA TERMINATED NORMALLY****
TOTAL RUN TIME: 0 days 0 hours 1 minutes 3 seconds 664 msec
