                         Program Version 4.2.0 -  RELEASE  -
|  1> # 12h2o.su.etal.mol5,9
|  2> ! MP2 def2-TZVP EnGrad TightSCF
|  3>
|  4> %pal
|  5>     nprocs 6
|  6> end
|  7>
|  8> %maxcore 8000
|  9>
| 10> %scf
| 11>     ConvForced true
| 12> end
| 13>
| 14> *xyz 0 1
| 15> O   0.885520000  -1.737840000   0.052730000
| 16> H   1.284090000  -0.839590000   0.017130000
| 17> H   1.032320000  -2.090180000  -0.841890000
| 18> O   0.741530000  -1.752130000   2.896280000
| 19> H   0.920500000  -2.036450000   1.984040000
| 20> H   1.242140000  -0.921210000   2.984230000
| 21> *
| 22>
| 23>                          ****END OF INPUT****

CARTESIAN COORDINATES (ANGSTROEM)
---------------------------------
  O      0.885520   -1.737840    0.052730
  H      1.284090   -0.839590    0.017130
  H      1.032320   -2.090180   -0.841890
  O      0.741530   -1.752130    2.896280
  H      0.920500   -2.036450    1.984040
  H      1.242140   -0.921210    2.984230

 Total Charge           Charge          ....    0
 Multiplicity           Mult            ....    1
 Number of Electrons    NEL             ....   20
 Basis Dimension        Dim             ....   86

ORBITAL ENERGIES
----------------

  NO   OCC          E(Eh)            E(eV)
   0   2.0000     -20.591380      -560.3199
   1   2.0000     -20.531912      -558.7017
   2   2.0000      -1.369724       -37.2721
   3   2.0000      -1.313744       -35.7488
   4   2.0000      -0.732319       -19.9274
   5   2.0000      -0.683472       -18.5982
   6   2.0000      -0.610216       -16.6048
   7   2.0000      -0.551608       -15.0100
   8   2.0000      -0.531873       -14.4730
   9   2.0000      -0.478168       -13.0116
  10   0.0000       0.103810         2.8248
  11   0.0000       0.159924         4.3518
  12   0.0000       0.195419         5.3176
  13   0.0000       0.272291         7.4094
  14   0.0000       0.478061        13.0087

MULLIKEN ATOMIC CHARGES
-----------------------
   0 O :   -0.687104
   1 H :    0.342620
   2 H :    0.350460
   3 O :   -0.690652
   4 H :    0.368896
   5 H :    0.315780
Sum of atomic charges:   -0.0000000

LOEWDIN ATOMIC CHARGES
----------------------
   0 O :   -0.316663
   1 H :    0.174329
   2 H :    0.171322
   3 O :   -0.338255
   4 H :    0.152743
   5 H :    0.156524

  Mayer bond orders larger than 0.100000
B(  0-O ,  1-H ) :   0.8437 B(  0-O ,  2-H ) :   0.8422 B(  3-O ,  4-H ) :   0.8223
B(  3-O ,  5-H ) :   0.8650

MP2 TOTAL ENERGY:     -152.630524437 Eh
FINAL SINGLE POINT ENERGY      -152.630524437257

DIPOLE MOMENT
-------------
                                X             Y             Z
Electronic contribution:     -0.18933      -0.18425       0.05801
Nuclear contribution   :      1.01960       0.90936      -1.46039
                        -----------------------------------------
Total Dipole Moment    :      0.83027       0.72512      -1.40237
                        -----------------------------------------
Magnitude (a.u.)       :      1.78376
Magnitude (Debye)      :      4.53396

Rotational constants in cm-1:     8.067783     0.224742     0.219326
Rotational constants in MHz : 241866.059581  6737.587082  6575.215868

                             ****ORCA TERMINATED NORMALLY****
TOTAL RUN TIME: 0 days 0 hours 0 minutes 23 seconds 680 msec
