                         Program Version 4.2.0 -  RELEASE  -
|  1> # 12h2o.su.etal.mol0,2,3,5,6,7,10
|  2> ! MP2 def2-TZVP EnGrad TightSCF
|  3>
|  4> %pal
|  5>     nprocs 6
|  6> end
|  7>
|  8> %maxcore 8000
|  9>
| 10> %scf
| 11>     ConvForced true
| 12> end
| 13>
| 14> *xyz 0 1
| 15> O   1.794470000   0.923410000   2.768350000
| 16> H   2.338250000   1.359750000   3.430940000
| 17> H   0.879480000   1.303000000   2.865760000
| 18> O   0.923410000  -1.794470000  -2.768350000
| 19> H   1.359750000  -2.338250000  -3.430940000
| 20> H   1.303000000  -0.879480000  -2.865760000
| 21> O  -1.752130000  -0.741530000  -2.896280000
| 22> H  -2.036450000  -0.920500000  -1.984040000
| 23> H  -0.921210000  -1.242140000  -2.984230000
| 24> O   0.885520000  -1.737840000   0.052730000
| 25> H   1.284090000  -0.839590000   0.017130000
| 26> H   1.032320000  -2.090180000  -0.841890000
| 27> O   1.737840000   0.885520000  -0.052730000
| 28> H   2.090180000   1.032320000   0.841890000
| 29> H   0.839590000   1.284090000  -0.017130000
| 30> O  -1.737840000  -0.885520000  -0.052730000
| 31> H  -2.090180000  -1.032320000   0.841890000
| 32> H  -0.839590000  -1.284090000  -0.017130000
| 33> O  -0.923410000   1.794470000  -2.768350000
| 34> H  -1.359750000   2.338250000  -3.430940000
| 35> H  -1.303000000   0.879480000  -2.865760000
| 36> *
| 37>
| 38>                          ****END OF INPUT****

CARTESIAN COORDINATES (ANGSTROEM)
---------------------------------
  O      1.794470    0.923410    2.768350
  H      2.338250    1.359750    3.430940
  H      0.879480    1.303000    2.865760
  O      0.923410   -1.794470   -2.768350
  H      1.359750   -2.338250   -3.430940
  H      1.303000   -0.879480   -2.865760
  O     -1.752130   -0.741530   -2.896280
  H     -2.036450   -0.920500   -1.984040
  H     -0.921210   -1.242140   -2.984230
  O      0.885520   -1.737840    0.052730
  H      1.284090   -0.839590    0.017130
  H      1.032320   -2.090180   -0.841890
  O      1.737840    0.885520   -0.052730
  H      2.090180    1.032320    0.841890
  H      0.839590    1.284090   -0.017130
  O     -1.737840   -0.885520   -0.052730
  H     -2.090180   -1.032320    0.841890
  H     -0.839590   -1.284090   -0.017130
  O     -0.923410    1.794470   -2.768350
  H     -1.359750    2.338250   -3.430940
  H     -1.303000    0.879480   -2.865760

 Total Charge           Charge          ....    0
 Multiplicity           Mult            ....    1
 Number of Electrons    NEL             ....   70
 Basis Dimension        Dim             ....  301

ORBITAL ENERGIES
----------------

  NO   OCC          E(Eh)            E(eV)
   0   2.0000     -20.603888      -560.6603
   1   2.0000     -20.597578      -560.4886
   2   2.0000     -20.561090      -559.4957
   3   2.0000     -20.538190      -558.8726
   4   2.0000     -20.533126      -558.7348
   5   2.0000     -20.530749      -558.6701
   6   2.0000     -20.503382      -557.9254
   7   2.0000      -1.384429       -37.6722
   8   2.0000      -1.375845       -37.4386
   9   2.0000      -1.345823       -36.6217
  10   2.0000      -1.331013       -36.2187
  11   2.0000      -1.323192       -36.0059
  12   2.0000      -1.310541       -35.6616
  13   2.0000      -1.284425       -34.9510
  14   2.0000      -0.749686       -20.4000
  15   2.0000      -0.742408       -20.2019
  16   2.0000      -0.707966       -19.2647
  17   2.0000      -0.697855       -18.9896
  18   2.0000      -0.694412       -18.8959
  19   2.0000      -0.687641       -18.7117
  20   2.0000      -0.670244       -18.2383
  21   2.0000      -0.628029       -17.0895
  22   2.0000      -0.617446       -16.8016
  23   2.0000      -0.590735       -16.0747
  24   2.0000      -0.586592       -15.9620
  25   2.0000      -0.572190       -15.5701
  26   2.0000      -0.552339       -15.0299
  27   2.0000      -0.537843       -14.6355
  28   2.0000      -0.533156       -14.5079
  29   2.0000      -0.522162       -14.2087
  30   2.0000      -0.499553       -13.5935
  31   2.0000      -0.489761       -13.3271
  32   2.0000      -0.477178       -12.9847
  33   2.0000      -0.472750       -12.8642
  34   2.0000      -0.454273       -12.3614
  35   0.0000       0.095920         2.6101
  36   0.0000       0.112844         3.0707
  37   0.0000       0.148732         4.0472
  38   0.0000       0.170119         4.6292
  39   0.0000       0.181025         4.9259

MULLIKEN ATOMIC CHARGES
-----------------------
   0 O :   -0.693454
   1 H :    0.354634
   2 H :    0.354996
   3 O :   -0.723651
   4 H :    0.362297
   5 H :    0.385229
   6 O :   -0.718461
   7 H :    0.385741
   8 H :    0.357241
   9 O :   -0.726319
  10 H :    0.365154
  11 H :    0.367009
  12 O :   -0.710292
  13 H :    0.377065
  14 H :    0.358272
  15 O :   -0.733814
  16 H :    0.333294
  17 H :    0.357811
  18 O :   -0.743097
  19 H :    0.319705
  20 H :    0.370641
Sum of atomic charges:    0.0000000

LOEWDIN ATOMIC CHARGES
----------------------
   0 O :   -0.308774
   1 H :    0.164671
   2 H :    0.186074
   3 O :   -0.288569
   4 H :    0.167099
   5 H :    0.197096
   6 O :   -0.289351
   7 H :    0.158080
   8 H :    0.145796
   9 O :   -0.316362
  10 H :    0.141602
  11 H :    0.145582
  12 O :   -0.299581
  13 H :    0.152842
  14 H :    0.176851
  15 O :   -0.345865
  16 H :    0.160956
  17 H :    0.142757
  18 O :   -0.379004
  19 H :    0.146025
  20 H :    0.142075

  Mayer bond orders larger than 0.100000
B(  0-O ,  1-H ) :   0.8405 B(  0-O ,  2-H ) :   0.8341 B(  3-O ,  4-H ) :   0.8331
B(  3-O ,  5-H ) :   0.8086 B(  6-O ,  7-H ) :   0.7990 B(  6-O ,  8-H ) :   0.8185
B(  6-O , 20-H ) :   0.1061 B(  9-O , 10-H ) :   0.7776 B(  9-O , 11-H ) :   0.8190
B(  9-O , 17-H ) :   0.1181 B( 12-O , 13-H ) :   0.8044 B( 12-O , 14-H ) :   0.8287
B( 15-O , 16-H ) :   0.8524 B( 15-O , 17-H ) :   0.7603 B( 18-O , 19-H ) :   0.8630
B( 18-O , 20-H ) :   0.7650

MP2 TOTAL ENERGY:     -534.254928552 Eh
FINAL SINGLE POINT ENERGY      -534.254928551626

DIPOLE MOMENT
-------------
                                X             Y             Z
Electronic contribution:      0.37682      -0.29566       0.12699
Nuclear contribution   :      0.59993       0.56789       0.82779
                        -----------------------------------------
Total Dipole Moment    :      0.97676       0.27223       0.95478
                        -----------------------------------------
Magnitude (a.u.)       :      1.39275
Magnitude (Debye)      :      3.54010

Rotational constants in cm-1:     0.046012     0.021850     0.020335
Rotational constants in MHz :  1379.403605   655.033859   609.639697

                             ****ORCA TERMINATED NORMALLY****
TOTAL RUN TIME: 0 days 0 hours 1 minutes 57 seconds 387 msec
