                         Program Version 4.2.0 -  RELEASE  -
|  1> # 12h2o.su.etal.mol0,2,3,4,5,6,7,8,9
|  2> ! MP2 def2-TZVP EnGrad TightSCF
|  3>
|  4> %pal
|  5>     nprocs 6
|  6> end
|  7>
|  8> %maxcore 8000
|  9>
| 10> %scf
| 11>     ConvForced true
| 12> end
| 13>
| 14> *xyz 0 1
| 15> O   1.794470000   0.923410000   2.768350000
| 16> H   2.338250000   1.359750000   3.430940000
| 17> H   0.879480000   1.303000000   2.865760000
| 18> O   0.923410000  -1.794470000  -2.768350000
| 19> H   1.359750000  -2.338250000  -3.430940000
| 20> H   1.303000000  -0.879480000  -2.865760000
| 21> O  -1.752130000  -0.741530000  -2.896280000
| 22> H  -2.036450000  -0.920500000  -1.984040000
| 23> H  -0.921210000  -1.242140000  -2.984230000
| 24> O  -0.885520000   1.737840000   0.052730000
| 25> H  -1.032320000   2.090180000  -0.841890000
| 26> H  -1.284090000   0.839590000   0.017130000
| 27> O   0.885520000  -1.737840000   0.052730000
| 28> H   1.284090000  -0.839590000   0.017130000
| 29> H   1.032320000  -2.090180000  -0.841890000
| 30> O   1.737840000   0.885520000  -0.052730000
| 31> H   2.090180000   1.032320000   0.841890000
| 32> H   0.839590000   1.284090000  -0.017130000
| 33> O  -1.737840000  -0.885520000  -0.052730000
| 34> H  -2.090180000  -1.032320000   0.841890000
| 35> H  -0.839590000  -1.284090000  -0.017130000
| 36> O   1.752130000   0.741530000  -2.896280000
| 37> H   2.036450000   0.920500000  -1.984040000
| 38> H   0.921210000   1.242140000  -2.984230000
| 39> O   0.741530000  -1.752130000   2.896280000
| 40> H   0.920500000  -2.036450000   1.984040000
| 41> H   1.242140000  -0.921210000   2.984230000
| 42> *
| 43>
| 44>                          ****END OF INPUT****

CARTESIAN COORDINATES (ANGSTROEM)
---------------------------------
  O      1.794470    0.923410    2.768350
  H      2.338250    1.359750    3.430940
  H      0.879480    1.303000    2.865760
  O      0.923410   -1.794470   -2.768350
  H      1.359750   -2.338250   -3.430940
  H      1.303000   -0.879480   -2.865760
  O     -1.752130   -0.741530   -2.896280
  H     -2.036450   -0.920500   -1.984040
  H     -0.921210   -1.242140   -2.984230
  O     -0.885520    1.737840    0.052730
  H     -1.032320    2.090180   -0.841890
  H     -1.284090    0.839590    0.017130
  O      0.885520   -1.737840    0.052730
  H      1.284090   -0.839590    0.017130
  H      1.032320   -2.090180   -0.841890
  O      1.737840    0.885520   -0.052730
  H      2.090180    1.032320    0.841890
  H      0.839590    1.284090   -0.017130
  O     -1.737840   -0.885520   -0.052730
  H     -2.090180   -1.032320    0.841890
  H     -0.839590   -1.284090   -0.017130
  O      1.752130    0.741530   -2.896280
  H      2.036450    0.920500   -1.984040
  H      0.921210    1.242140   -2.984230
  O      0.741530   -1.752130    2.896280
  H      0.920500   -2.036450    1.984040
  H      1.242140   -0.921210    2.984230

 Total Charge           Charge          ....    0
 Multiplicity           Mult            ....    1
 Number of Electrons    NEL             ....   90
 Basis Dimension        Dim             ....  387

ORBITAL ENERGIES
----------------

  NO   OCC          E(Eh)            E(eV)
   0   2.0000     -20.620694      -561.1176
   1   2.0000     -20.585033      -560.1472
   2   2.0000     -20.578920      -559.9809
   3   2.0000     -20.576803      -559.9233
   4   2.0000     -20.575977      -559.9008
   5   2.0000     -20.566876      -559.6531
   6   2.0000     -20.558104      -559.4145
   7   2.0000     -20.518566      -558.3386
   8   2.0000     -20.514925      -558.2395
   9   2.0000      -1.401505       -38.1369
  10   2.0000      -1.382079       -37.6083
  11   2.0000      -1.374626       -37.4055
  12   2.0000      -1.364898       -37.1408
  13   2.0000      -1.358621       -36.9700
  14   2.0000      -1.351526       -36.7769
  15   2.0000      -1.340180       -36.4681
  16   2.0000      -1.303677       -35.4748
  17   2.0000      -1.299834       -35.3703
  18   2.0000      -0.766804       -20.8658
  19   2.0000      -0.744290       -20.2531
  20   2.0000      -0.733615       -19.9627
  21   2.0000      -0.731875       -19.9153
  22   2.0000      -0.730815       -19.8865
  23   2.0000      -0.728263       -19.8170
  24   2.0000      -0.721019       -19.6199
  25   2.0000      -0.683934       -18.6108
  26   2.0000      -0.678064       -18.4511
  27   2.0000      -0.654856       -17.8195
  28   2.0000      -0.632943       -17.2233
  29   2.0000      -0.617996       -16.8165
  30   2.0000      -0.617482       -16.8025
  31   2.0000      -0.600716       -16.3463
  32   2.0000      -0.594293       -16.1715
  33   2.0000      -0.585069       -15.9205
  34   2.0000      -0.560673       -15.2567
  35   2.0000      -0.542196       -14.7539
  36   2.0000      -0.534735       -14.5509
  37   2.0000      -0.526241       -14.3197
  38   2.0000      -0.523164       -14.2360
  39   2.0000      -0.521873       -14.2009
  40   2.0000      -0.519136       -14.1264
  41   2.0000      -0.510162       -13.8822
  42   2.0000      -0.504657       -13.7324
  43   2.0000      -0.468317       -12.7436
  44   2.0000      -0.464878       -12.6500
  45   0.0000       0.088211         2.4003
  46   0.0000       0.110437         3.0051
  47   0.0000       0.143081         3.8934
  48   0.0000       0.145666         3.9638
  49   0.0000       0.177074         4.8184

MULLIKEN ATOMIC CHARGES
-----------------------
   0 O :   -0.719889
   1 H :    0.367392
   2 H :    0.378310
   3 O :   -0.755277
   4 H :    0.351225
   5 H :    0.387219
   6 O :   -0.734072
   7 H :    0.367109
   8 H :    0.350778
   9 O :   -0.721655
  10 H :    0.351925
  11 H :    0.376240
  12 O :   -0.755636
  13 H :    0.361609
  14 H :    0.384590
  15 O :   -0.757780
  16 H :    0.386000
  17 H :    0.356773
  18 O :   -0.744934
  19 H :    0.362333
  20 H :    0.378284
  21 O :   -0.700021
  22 H :    0.392097
  23 H :    0.350841
  24 O :   -0.726176
  25 H :    0.371424
  26 H :    0.341291
Sum of atomic charges:    0.0000000

LOEWDIN ATOMIC CHARGES
----------------------
   0 O :   -0.287918
   1 H :    0.169481
   2 H :    0.194863
   3 O :   -0.314483
   4 H :    0.159709
   5 H :    0.147174
   6 O :   -0.356462
   7 H :    0.147829
   8 H :    0.141624
   9 O :   -0.310929
  10 H :    0.166947
  11 H :    0.146201
  12 O :   -0.300122
  13 H :    0.140557
  14 H :    0.152394
  15 O :   -0.303455
  16 H :    0.153780
  17 H :    0.140176
  18 O :   -0.294981
  19 H :    0.171758
  20 H :    0.147143
  21 O :   -0.273849
  22 H :    0.158647
  23 H :    0.170367
  24 O :   -0.354600
  25 H :    0.148796
  26 H :    0.139353

  Mayer bond orders larger than 0.100000
B(  0-O ,  1-H ) :   0.8304 B(  0-O ,  2-H ) :   0.8148 B(  3-O ,  4-H ) :   0.8401
B(  3-O ,  5-H ) :   0.7396 B(  5-H , 21-O ) :   0.1005 B(  6-O ,  7-H ) :   0.8255
B(  6-O ,  8-H ) :   0.8210 B(  9-O , 10-H ) :   0.8400 B(  9-O , 11-H ) :   0.7602
B(  9-O , 17-H ) :   0.1172 B( 11-H , 18-O ) :   0.1052 B( 12-O , 13-H ) :   0.7662
B( 12-O , 14-H ) :   0.7927 B( 12-O , 20-H ) :   0.1073 B( 15-O , 16-H ) :   0.8005
B( 15-O , 17-H ) :   0.7559 B( 18-O , 19-H ) :   0.8308 B( 18-O , 20-H ) :   0.7464
B( 21-O , 22-H ) :   0.7948 B( 21-O , 23-H ) :   0.8369 B( 24-O , 25-H ) :   0.8193
B( 24-O , 26-H ) :   0.8370

MP2 TOTAL ENERGY:     -686.929555429 Eh
FINAL SINGLE POINT ENERGY      -686.929555429345

DIPOLE MOMENT
-------------
                                X             Y             Z
Electronic contribution:      0.17575       0.10131       0.05588
Nuclear contribution   :      0.93582       1.44310       0.68611
                        -----------------------------------------
Total Dipole Moment    :      1.11157       1.54441       0.74199
                        -----------------------------------------
Magnitude (a.u.)       :      2.04239
Magnitude (Debye)      :      5.19133

Rotational constants in cm-1:     0.030358     0.017080     0.016025
Rotational constants in MHz :   910.105975   512.037785   480.420254

                             ****ORCA TERMINATED NORMALLY****
TOTAL RUN TIME: 0 days 0 hours 5 minutes 10 seconds 257 msec
