                         Program Version 4.2.0 -  RELEASE  -
|  1> # 12h2o.su.etal.mol0,2,3,4,5,7,8,9,10,11
|  2> ! MP2 def2-TZVP EnGrad TightSCF
|  3>
|  4> %pal
|  5>     nprocs 6
|  6> end
|  7>
|  8> %maxcore 8000
|  9>
| 10> %scf
| 11>     ConvForced true
| 12> end
| 13>
| 14> *xyz 0 1
| 15> O   1.794470000   0.923410000   2.768350000
| 16> H   2.338250000   1.359750000   3.430940000
| 17> H   0.879480000   1.303000000   2.865760000
| 18> O   0.923410000  -1.794470000  -2.768350000
| 19> H   1.359750000  -2.338250000  -3.430940000
| 20> H   1.303000000  -0.879480000  -2.865760000
| 21> O  -1.752130000  -0.741530000  -2.896280000
| 22> H  -2.036450000  -0.920500000  -1.984040000
| 23> H  -0.921210000  -1.242140000  -2.984230000
| 24> O  -0.885520000   1.737840000   0.052730000
| 25> H  -1.032320000   2.090180000  -0.841890000
| 26> H  -1.284090000   0.839590000   0.017130000
| 27> O   0.885520000  -1.737840000   0.052730000
| 28> H   1.284090000  -0.839590000   0.017130000
| 29> H   1.032320000  -2.090180000  -0.841890000
| 30> O  -1.737840000  -0.885520000  -0.052730000
| 31> H  -2.090180000  -1.032320000   0.841890000
| 32> H  -0.839590000  -1.284090000  -0.017130000
| 33> O   1.752130000   0.741530000  -2.896280000
| 34> H   2.036450000   0.920500000  -1.984040000
| 35> H   0.921210000   1.242140000  -2.984230000
| 36> O   0.741530000  -1.752130000   2.896280000
| 37> H   0.920500000  -2.036450000   1.984040000
| 38> H   1.242140000  -0.921210000   2.984230000
| 39> O  -0.923410000   1.794470000  -2.768350000
| 40> H  -1.359750000   2.338250000  -3.430940000
| 41> H  -1.303000000   0.879480000  -2.865760000
| 42> O  -0.741530000   1.752130000   2.896280000
| 43> H  -0.920500000   2.036450000   1.984040000
| 44> H  -1.242140000   0.921210000   2.984230000
| 45> *
| 46>
| 47>                          ****END OF INPUT****

CARTESIAN COORDINATES (ANGSTROEM)
---------------------------------
  O      1.794470    0.923410    2.768350
  H      2.338250    1.359750    3.430940
  H      0.879480    1.303000    2.865760
  O      0.923410   -1.794470   -2.768350
  H      1.359750   -2.338250   -3.430940
  H      1.303000   -0.879480   -2.865760
  O     -1.752130   -0.741530   -2.896280
  H     -2.036450   -0.920500   -1.984040
  H     -0.921210   -1.242140   -2.984230
  O     -0.885520    1.737840    0.052730
  H     -1.032320    2.090180   -0.841890
  H     -1.284090    0.839590    0.017130
  O      0.885520   -1.737840    0.052730
  H      1.284090   -0.839590    0.017130
  H      1.032320   -2.090180   -0.841890
  O     -1.737840   -0.885520   -0.052730
  H     -2.090180   -1.032320    0.841890
  H     -0.839590   -1.284090   -0.017130
  O      1.752130    0.741530   -2.896280
  H      2.036450    0.920500   -1.984040
  H      0.921210    1.242140   -2.984230
  O      0.741530   -1.752130    2.896280
  H      0.920500   -2.036450    1.984040
  H      1.242140   -0.921210    2.984230
  O     -0.923410    1.794470   -2.768350
  H     -1.359750    2.338250   -3.430940
  H     -1.303000    0.879480   -2.865760
  O     -0.741530    1.752130    2.896280
  H     -0.920500    2.036450    1.984040
  H     -1.242140    0.921210    2.984230

 Total Charge           Charge          ....    0
 Multiplicity           Mult            ....    1
 Number of Electrons    NEL             ....  100
 Basis Dimension        Dim             ....  430

ORBITAL ENERGIES
----------------

  NO   OCC          E(Eh)            E(eV)
   0   2.0000     -20.595665      -560.4365
   1   2.0000     -20.592761      -560.3575
   2   2.0000     -20.589617      -560.2720
   3   2.0000     -20.589446      -560.2673
   4   2.0000     -20.576515      -559.9154
   5   2.0000     -20.567631      -559.6737
   6   2.0000     -20.564797      -559.5966
   7   2.0000     -20.540976      -558.9484
   8   2.0000     -20.535558      -558.8009
   9   2.0000     -20.509599      -558.0946
  10   2.0000      -1.393243       -37.9121
  11   2.0000      -1.385923       -37.7129
  12   2.0000      -1.375419       -37.4270
  13   2.0000      -1.368559       -37.2404
  14   2.0000      -1.367106       -37.2008
  15   2.0000      -1.355779       -36.8926
  16   2.0000      -1.349061       -36.7098
  17   2.0000      -1.325442       -36.0671
  18   2.0000      -1.318735       -35.8846
  19   2.0000      -1.294166       -35.2161
  20   2.0000      -0.755862       -20.5681
  21   2.0000      -0.747689       -20.3456
  22   2.0000      -0.745836       -20.2952
  23   2.0000      -0.743386       -20.2286
  24   2.0000      -0.735915       -20.0253
  25   2.0000      -0.724224       -19.7071
  26   2.0000      -0.717607       -19.5271
  27   2.0000      -0.703560       -19.1448
  28   2.0000      -0.702302       -19.1106
  29   2.0000      -0.674635       -18.3578
  30   2.0000      -0.655118       -17.8267
  31   2.0000      -0.633204       -17.2304
  32   2.0000      -0.625922       -17.0322
  33   2.0000      -0.612580       -16.6691
  34   2.0000      -0.603732       -16.4284
  35   2.0000      -0.603106       -16.4113
  36   2.0000      -0.589216       -16.0334
  37   2.0000      -0.567113       -15.4319
  38   2.0000      -0.561554       -15.2807
  39   2.0000      -0.541988       -14.7482
  40   2.0000      -0.538161       -14.6441
  41   2.0000      -0.535875       -14.5819
  42   2.0000      -0.529627       -14.4119
  43   2.0000      -0.525718       -14.3055
  44   2.0000      -0.520943       -14.1756
  45   2.0000      -0.513753       -13.9799
  46   2.0000      -0.503156       -13.6916
  47   2.0000      -0.492421       -13.3995
  48   2.0000      -0.483313       -13.1516
  49   2.0000      -0.459641       -12.5075
  50   0.0000       0.089104         2.4246
  51   0.0000       0.119058         3.2397
  52   0.0000       0.134950         3.6722
  53   0.0000       0.137094         3.7305
  54   0.0000       0.162332         4.4173

MULLIKEN ATOMIC CHARGES
-----------------------
   0 O :   -0.746014
   1 H :    0.336803
   2 H :    0.385927
   3 O :   -0.763650
   4 H :    0.359870
   5 H :    0.384028
   6 O :   -0.722015
   7 H :    0.389239
   8 H :    0.370085
   9 O :   -0.752664
  10 H :    0.372224
  11 H :    0.342490
  12 O :   -0.727573
  13 H :    0.357570
  14 H :    0.389956
  15 O :   -0.741735
  16 H :    0.362505
  17 H :    0.380118
  18 O :   -0.706963
  19 H :    0.356130
  20 H :    0.385588
  21 O :   -0.736665
  22 H :    0.361551
  23 H :    0.352449
  24 O :   -0.760866
  25 H :    0.353525
  26 H :    0.385714
  27 O :   -0.700927
  28 H :    0.391686
  29 H :    0.341615
Sum of atomic charges:   -0.0000000

LOEWDIN ATOMIC CHARGES
----------------------
   0 O :   -0.344216
   1 H :    0.153647
   2 H :    0.146402
   3 O :   -0.316346
   4 H :    0.163674
   5 H :    0.145741
   6 O :   -0.284091
   7 H :    0.157496
   8 H :    0.149679
   9 O :   -0.350026
  10 H :    0.148851
  11 H :    0.135730
  12 O :   -0.279406
  13 H :    0.175631
  14 H :    0.155891
  15 O :   -0.295654
  16 H :    0.171796
  17 H :    0.148367
  18 O :   -0.277918
  19 H :    0.170269
  20 H :    0.156622
  21 O :   -0.358814
  22 H :    0.144690
  23 H :    0.143031
  24 O :   -0.316144
  25 H :    0.160597
  26 H :    0.146313
  27 O :   -0.277583
  28 H :    0.159811
  29 H :    0.165958

  Mayer bond orders larger than 0.100000
B(  0-O ,  1-H ) :   0.8508 B(  0-O ,  2-H ) :   0.7524 B(  3-O ,  4-H ) :   0.8354
B(  3-O ,  5-H ) :   0.7310 B(  5-H , 18-O ) :   0.1159 B(  6-O ,  7-H ) :   0.8024
B(  6-O ,  8-H ) :   0.7997 B(  6-O , 26-H ) :   0.1230 B(  9-O , 10-H ) :   0.8099
B(  9-O , 11-H ) :   0.7861 B( 12-O , 13-H ) :   0.8242 B( 12-O , 14-H ) :   0.7868
B( 15-O , 16-H ) :   0.8316 B( 15-O , 17-H ) :   0.7547 B( 18-O , 19-H ) :   0.8372
B( 18-O , 20-H ) :   0.7805 B( 21-O , 22-H ) :   0.8322 B( 21-O , 23-H ) :   0.8108
B( 24-O , 25-H ) :   0.8386 B( 24-O , 26-H ) :   0.7256 B( 27-O , 28-H ) :   0.7893
B( 27-O , 29-H ) :   0.8433

MP2 TOTAL ENERGY:     -763.259795374 Eh
FINAL SINGLE POINT ENERGY      -763.259795373608

DIPOLE MOMENT
-------------
                                X             Y             Z
Electronic contribution:     -0.09964      -0.05468      -0.37291
Nuclear contribution   :      0.14541       0.22520      -1.40687
                        -----------------------------------------
Total Dipole Moment    :      0.04577       0.17052      -1.77979
                        -----------------------------------------
Magnitude (a.u.)       :      1.78852
Magnitude (Debye)      :      4.54606

Rotational constants in cm-1:     0.024849     0.013165     0.011738
Rotational constants in MHz :   744.939349   394.667602   351.885020

                             ****ORCA TERMINATED NORMALLY****
TOTAL RUN TIME: 0 days 0 hours 7 minutes 19 seconds 654 msec
