                         Program Version 4.2.0 -  RELEASE  -
|  1> # 12h2o.su.etal.mol0,4,5,7,8,10,11
|  2> ! MP2 def2-TZVP EnGrad TightSCF
|  3>
|  4> %pal
|  5>     nprocs 6
|  6> end
|  7>
|  8> %maxcore 8000
|  9>
| 10> %scf
| 11>     ConvForced true
| 12> end
| 13>
| 14> *xyz 0 1
| 15> O   1.794470000   0.923410000   2.768350000
| 16> H   2.338250000   1.359750000   3.430940000
| 17> H   0.879480000   1.303000000   2.865760000
| 18> O  -0.885520000   1.737840000   0.052730000
| 19> H  -1.032320000   2.090180000  -0.841890000
| 20> H  -1.284090000   0.839590000   0.017130000
| 21> O   0.885520000  -1.737840000   0.052730000
| 22> H   1.284090000  -0.839590000   0.017130000
| 23> H   1.032320000  -2.090180000  -0.841890000
| 24> O  -1.737840000  -0.885520000  -0.052730000
| 25> H  -2.090180000  -1.032320000   0.841890000
| 26> H  -0.839590000  -1.284090000  -0.017130000
| 27> O   1.752130000   0.741530000  -2.896280000
| 28> H   2.036450000   0.920500000  -1.984040000
| 29> H   0.921210000   1.242140000  -2.984230000
| 30> O  -0.923410000   1.794470000  -2.768350000
| 31> H  -1.359750000   2.338250000  -3.430940000
| 32> H  -1.303000000   0.879480000  -2.865760000
| 33> O  -0.741530000   1.752130000   2.896280000
| 34> H  -0.920500000   2.036450000   1.984040000
| 35> H  -1.242140000   0.921210000   2.984230000
| 36> *
| 37>
| 38>                          ****END OF INPUT****

CARTESIAN COORDINATES (ANGSTROEM)
---------------------------------
  O      1.794470    0.923410    2.768350
  H      2.338250    1.359750    3.430940
  H      0.879480    1.303000    2.865760
  O     -0.885520    1.737840    0.052730
  H     -1.032320    2.090180   -0.841890
  H     -1.284090    0.839590    0.017130
  O      0.885520   -1.737840    0.052730
  H      1.284090   -0.839590    0.017130
  H      1.032320   -2.090180   -0.841890
  O     -1.737840   -0.885520   -0.052730
  H     -2.090180   -1.032320    0.841890
  H     -0.839590   -1.284090   -0.017130
  O      1.752130    0.741530   -2.896280
  H      2.036450    0.920500   -1.984040
  H      0.921210    1.242140   -2.984230
  O     -0.923410    1.794470   -2.768350
  H     -1.359750    2.338250   -3.430940
  H     -1.303000    0.879480   -2.865760
  O     -0.741530    1.752130    2.896280
  H     -0.920500    2.036450    1.984040
  H     -1.242140    0.921210    2.984230

 Total Charge           Charge          ....    0
 Multiplicity           Mult            ....    1
 Number of Electrons    NEL             ....   70
 Basis Dimension        Dim             ....  301

ORBITAL ENERGIES
----------------

  NO   OCC          E(Eh)            E(eV)
   0   2.0000     -20.616977      -561.0165
   1   2.0000     -20.591826      -560.3321
   2   2.0000     -20.575245      -559.8809
   3   2.0000     -20.562485      -559.5337
   4   2.0000     -20.547637      -559.1296
   5   2.0000     -20.539668      -558.9128
   6   2.0000     -20.507998      -558.0510
   7   2.0000      -1.397186       -38.0194
   8   2.0000      -1.375819       -37.4379
   9   2.0000      -1.358179       -36.9579
  10   2.0000      -1.352005       -36.7899
  11   2.0000      -1.329819       -36.1862
  12   2.0000      -1.323820       -36.0230
  13   2.0000      -1.289862       -35.0989
  14   2.0000      -0.762815       -20.7573
  15   2.0000      -0.729992       -19.8641
  16   2.0000      -0.727546       -19.7975
  17   2.0000      -0.716245       -19.4900
  18   2.0000      -0.702332       -19.1114
  19   2.0000      -0.699765       -19.0416
  20   2.0000      -0.677419       -18.4335
  21   2.0000      -0.638764       -17.3817
  22   2.0000      -0.622929       -16.9508
  23   2.0000      -0.605116       -16.4660
  24   2.0000      -0.592231       -16.1154
  25   2.0000      -0.583833       -15.8869
  26   2.0000      -0.563324       -15.3288
  27   2.0000      -0.545833       -14.8529
  28   2.0000      -0.536852       -14.6085
  29   2.0000      -0.528986       -14.3945
  30   2.0000      -0.514387       -13.9972
  31   2.0000      -0.496070       -13.4987
  32   2.0000      -0.494490       -13.4558
  33   2.0000      -0.489175       -13.3111
  34   2.0000      -0.458567       -12.4782
  35   0.0000       0.085583         2.3288
  36   0.0000       0.111432         3.0322
  37   0.0000       0.127984         3.4826
  38   0.0000       0.159700         4.3457
  39   0.0000       0.179705         4.8900

MULLIKEN ATOMIC CHARGES
-----------------------
   0 O :   -0.739436
   1 H :    0.322211
   2 H :    0.371167
   3 O :   -0.746342
   4 H :    0.366959
   5 H :    0.339644
   6 O :   -0.688045
   7 H :    0.370808
   8 H :    0.357544
   9 O :   -0.714609
  10 H :    0.344980
  11 H :    0.373613
  12 O :   -0.705135
  13 H :    0.333276
  14 H :    0.359255
  15 O :   -0.715977
  16 H :    0.364962
  17 H :    0.375632
  18 O :   -0.692547
  19 H :    0.390523
  20 H :    0.331517
Sum of atomic charges:   -0.0000000

LOEWDIN ATOMIC CHARGES
----------------------
   0 O :   -0.376412
   1 H :    0.147409
   2 H :    0.142952
   3 O :   -0.348141
   4 H :    0.147497
   5 H :    0.135816
   6 O :   -0.285180
   7 H :    0.182590
   8 H :    0.172763
   9 O :   -0.312653
  10 H :    0.164602
  11 H :    0.146847
  12 O :   -0.344558
  13 H :    0.159818
  14 H :    0.147119
  15 O :   -0.286988
  16 H :    0.168391
  17 H :    0.193587
  18 O :   -0.278137
  19 H :    0.159696
  20 H :    0.162981

  Mayer bond orders larger than 0.100000
B(  0-O ,  1-H ) :   0.8620 B(  0-O ,  2-H ) :   0.7760 B(  3-O ,  4-H ) :   0.8208
B(  3-O ,  5-H ) :   0.7802 B(  6-O ,  7-H ) :   0.8188 B(  6-O ,  8-H ) :   0.8357
B(  6-O , 11-H ) :   0.1002 B(  9-O , 10-H ) :   0.8455 B(  9-O , 11-H ) :   0.7675
B( 12-O , 13-H ) :   0.8534 B( 12-O , 14-H ) :   0.8211 B( 15-O , 16-H ) :   0.8316
B( 15-O , 17-H ) :   0.8170 B( 18-O , 19-H ) :   0.7906 B( 18-O , 20-H ) :   0.8519

MP2 TOTAL ENERGY:     -534.247168824 Eh
FINAL SINGLE POINT ENERGY      -534.247168823630

DIPOLE MOMENT
-------------
                                X             Y             Z
Electronic contribution:     -0.00164      -0.12184      -0.28506
Nuclear contribution   :     -1.55436       0.02691      -0.77428
                        -----------------------------------------
Total Dipole Moment    :     -1.55600      -0.09493      -1.05933
                        -----------------------------------------
Magnitude (a.u.)       :      1.88476
Magnitude (Debye)      :      4.79069

Rotational constants in cm-1:     0.038466     0.021816     0.020295
Rotational constants in MHz :  1153.185423   654.018101   608.433154

                             ****ORCA TERMINATED NORMALLY****
TOTAL RUN TIME: 0 days 0 hours 2 minutes 12 seconds 730 msec
