                         Program Version 4.2.0 -  RELEASE  -
|  1> # 12h2o.su.etal.mol1,2,3,9,11
|  2> ! MP2 def2-TZVP EnGrad TightSCF
|  3>
|  4> %pal
|  5>     nprocs 6
|  6> end
|  7>
|  8> %maxcore 8000
|  9>
| 10> %scf
| 11>     ConvForced true
| 12> end
| 13>
| 14> *xyz 0 1
| 15> O  -1.794470000  -0.923410000   2.768350000
| 16> H  -2.338250000  -1.359750000   3.430940000
| 17> H  -0.879480000  -1.303000000   2.865760000
| 18> O   0.923410000  -1.794470000  -2.768350000
| 19> H   1.359750000  -2.338250000  -3.430940000
| 20> H   1.303000000  -0.879480000  -2.865760000
| 21> O  -1.752130000  -0.741530000  -2.896280000
| 22> H  -2.036450000  -0.920500000  -1.984040000
| 23> H  -0.921210000  -1.242140000  -2.984230000
| 24> O   0.741530000  -1.752130000   2.896280000
| 25> H   0.920500000  -2.036450000   1.984040000
| 26> H   1.242140000  -0.921210000   2.984230000
| 27> O  -0.741530000   1.752130000   2.896280000
| 28> H  -0.920500000   2.036450000   1.984040000
| 29> H  -1.242140000   0.921210000   2.984230000
| 30> *
| 31>
| 32>                          ****END OF INPUT****

CARTESIAN COORDINATES (ANGSTROEM)
---------------------------------
  O     -1.794470   -0.923410    2.768350
  H     -2.338250   -1.359750    3.430940
  H     -0.879480   -1.303000    2.865760
  O      0.923410   -1.794470   -2.768350
  H      1.359750   -2.338250   -3.430940
  H      1.303000   -0.879480   -2.865760
  O     -1.752130   -0.741530   -2.896280
  H     -2.036450   -0.920500   -1.984040
  H     -0.921210   -1.242140   -2.984230
  O      0.741530   -1.752130    2.896280
  H      0.920500   -2.036450    1.984040
  H      1.242140   -0.921210    2.984230
  O     -0.741530    1.752130    2.896280
  H     -0.920500    2.036450    1.984040
  H     -1.242140    0.921210    2.984230

 Total Charge           Charge          ....    0
 Multiplicity           Mult            ....    1
 Number of Electrons    NEL             ....   50
 Basis Dimension        Dim             ....  215

ORBITAL ENERGIES
----------------

  NO   OCC          E(Eh)            E(eV)
   0   2.0000     -20.603217      -560.6420
   1   2.0000     -20.598778      -560.5212
   2   2.0000     -20.547351      -559.1218
   3   2.0000     -20.533347      -558.7408
   4   2.0000     -20.529479      -558.6355
   5   2.0000      -1.388963       -37.7956
   6   2.0000      -1.376397       -37.4537
   7   2.0000      -1.332221       -36.2516
   8   2.0000      -1.315868       -35.8066
   9   2.0000      -1.310942       -35.6725
  10   2.0000      -0.745576       -20.2881
  11   2.0000      -0.743526       -20.2324
  12   2.0000      -0.717141       -19.5144
  13   2.0000      -0.685754       -18.6603
  14   2.0000      -0.680237       -18.5102
  15   2.0000      -0.627710       -17.0809
  16   2.0000      -0.614865       -16.7313
  17   2.0000      -0.583175       -15.8690
  18   2.0000      -0.561618       -15.2824
  19   2.0000      -0.552386       -15.0312
  20   2.0000      -0.532452       -14.4887
  21   2.0000      -0.529953       -14.4208
  22   2.0000      -0.495581       -13.4854
  23   2.0000      -0.481051       -13.0901
  24   2.0000      -0.477290       -12.9877
  25   0.0000       0.096768         2.6332
  26   0.0000       0.112056         3.0492
  27   0.0000       0.155414         4.2290
  28   0.0000       0.167837         4.5671
  29   0.0000       0.172948         4.7062

MULLIKEN ATOMIC CHARGES
-----------------------
   0 O :   -0.737334
   1 H :    0.340820
   2 H :    0.377156
   3 O :   -0.697501
   4 H :    0.355569
   5 H :    0.361057
   6 O :   -0.705865
   7 H :    0.332636
   8 H :    0.354081
   9 O :   -0.685588
  10 H :    0.361183
  11 H :    0.369115
  12 O :   -0.715958
  13 H :    0.329116
  14 H :    0.361513
Sum of atomic charges:   -0.0000000

LOEWDIN ATOMIC CHARGES
----------------------
   0 O :   -0.339571
   1 H :    0.155540
   2 H :    0.144711
   3 O :   -0.312034
   4 H :    0.164806
   5 H :    0.188497
   6 O :   -0.348776
   7 H :    0.161806
   8 H :    0.145686
   9 O :   -0.270018
  10 H :    0.176140
  11 H :    0.179606
  12 O :   -0.352977
  13 H :    0.159790
  14 H :    0.146794

  Mayer bond orders larger than 0.100000
B(  0-O ,  1-H ) :   0.8487 B(  0-O ,  2-H ) :   0.7672 B(  3-O ,  4-H ) :   0.8399
B(  3-O ,  5-H ) :   0.8304 B(  6-O ,  7-H ) :   0.8561 B(  6-O ,  8-H ) :   0.8220
B(  9-O , 10-H ) :   0.8353 B(  9-O , 11-H ) :   0.8264 B( 12-O , 13-H ) :   0.8580
B( 12-O , 14-H ) :   0.8061

MP2 TOTAL ENERGY:     -381.593500318 Eh
FINAL SINGLE POINT ENERGY      -381.593500317575

DIPOLE MOMENT
-------------
                                X             Y             Z
Electronic contribution:      0.18954      -0.21008       0.10369
Nuclear contribution   :      1.44310      -0.93582      -0.68611
                        -----------------------------------------
Total Dipole Moment    :      1.63264      -1.14591      -0.58242
                        -----------------------------------------
Magnitude (a.u.)       :      2.07794
Magnitude (Debye)      :      5.28170

Rotational constants in cm-1:     0.066805     0.021061     0.018741
Rotational constants in MHz :  2002.766302   631.406733   561.829954

                             ****ORCA TERMINATED NORMALLY****
TOTAL RUN TIME: 0 days 0 hours 0 minutes 30 seconds 378 msec
