                         Program Version 4.2.0 -  RELEASE  -
|  1> # 12h2o.su.etal.mol0,1,3,6,7,8,9,10,11
|  2> ! MP2 def2-TZVP EnGrad TightSCF
|  3>
|  4> %pal
|  5>     nprocs 6
|  6> end
|  7>
|  8> %maxcore 8000
|  9>
| 10> %scf
| 11>     ConvForced true
| 12> end
| 13>
| 14> *xyz 0 1
| 15> O   1.794470000   0.923410000   2.768350000
| 16> H   2.338250000   1.359750000   3.430940000
| 17> H   0.879480000   1.303000000   2.865760000
| 18> O  -1.794470000  -0.923410000   2.768350000
| 19> H  -2.338250000  -1.359750000   3.430940000
| 20> H  -0.879480000  -1.303000000   2.865760000
| 21> O  -1.752130000  -0.741530000  -2.896280000
| 22> H  -2.036450000  -0.920500000  -1.984040000
| 23> H  -0.921210000  -1.242140000  -2.984230000
| 24> O   1.737840000   0.885520000  -0.052730000
| 25> H   2.090180000   1.032320000   0.841890000
| 26> H   0.839590000   1.284090000  -0.017130000
| 27> O  -1.737840000  -0.885520000  -0.052730000
| 28> H  -2.090180000  -1.032320000   0.841890000
| 29> H  -0.839590000  -1.284090000  -0.017130000
| 30> O   1.752130000   0.741530000  -2.896280000
| 31> H   2.036450000   0.920500000  -1.984040000
| 32> H   0.921210000   1.242140000  -2.984230000
| 33> O   0.741530000  -1.752130000   2.896280000
| 34> H   0.920500000  -2.036450000   1.984040000
| 35> H   1.242140000  -0.921210000   2.984230000
| 36> O  -0.923410000   1.794470000  -2.768350000
| 37> H  -1.359750000   2.338250000  -3.430940000
| 38> H  -1.303000000   0.879480000  -2.865760000
| 39> O  -0.741530000   1.752130000   2.896280000
| 40> H  -0.920500000   2.036450000   1.984040000
| 41> H  -1.242140000   0.921210000   2.984230000
| 42> *
| 43>
| 44>                          ****END OF INPUT****

CARTESIAN COORDINATES (ANGSTROEM)
---------------------------------
  O      1.794470    0.923410    2.768350
  H      2.338250    1.359750    3.430940
  H      0.879480    1.303000    2.865760
  O     -1.794470   -0.923410    2.768350
  H     -2.338250   -1.359750    3.430940
  H     -0.879480   -1.303000    2.865760
  O     -1.752130   -0.741530   -2.896280
  H     -2.036450   -0.920500   -1.984040
  H     -0.921210   -1.242140   -2.984230
  O      1.737840    0.885520   -0.052730
  H      2.090180    1.032320    0.841890
  H      0.839590    1.284090   -0.017130
  O     -1.737840   -0.885520   -0.052730
  H     -2.090180   -1.032320    0.841890
  H     -0.839590   -1.284090   -0.017130
  O      1.752130    0.741530   -2.896280
  H      2.036450    0.920500   -1.984040
  H      0.921210    1.242140   -2.984230
  O      0.741530   -1.752130    2.896280
  H      0.920500   -2.036450    1.984040
  H      1.242140   -0.921210    2.984230
  O     -0.923410    1.794470   -2.768350
  H     -1.359750    2.338250   -3.430940
  H     -1.303000    0.879480   -2.865760
  O     -0.741530    1.752130    2.896280
  H     -0.920500    2.036450    1.984040
  H     -1.242140    0.921210    2.984230

 Total Charge           Charge          ....    0
 Multiplicity           Mult            ....    1
 Number of Electrons    NEL             ....   90
 Basis Dimension        Dim             ....  387

ORBITAL ENERGIES
----------------

  NO   OCC          E(Eh)            E(eV)
   0   2.0000     -20.598341      -560.5094
   1   2.0000     -20.595289      -560.4263
   2   2.0000     -20.592257      -560.3438
   3   2.0000     -20.587107      -560.2037
   4   2.0000     -20.578265      -559.9631
   5   2.0000     -20.564067      -559.5767
   6   2.0000     -20.558933      -559.4370
   7   2.0000     -20.529818      -558.6448
   8   2.0000     -20.490513      -557.5752
   9   2.0000      -1.397146       -38.0183
  10   2.0000      -1.386005       -37.7151
  11   2.0000      -1.376404       -37.4538
  12   2.0000      -1.365775       -37.1646
  13   2.0000      -1.360686       -37.0261
  14   2.0000      -1.350285       -36.7431
  15   2.0000      -1.339785       -36.4574
  16   2.0000      -1.313262       -35.7357
  17   2.0000      -1.275525       -34.7088
  18   2.0000      -0.759613       -20.6701
  19   2.0000      -0.756365       -20.5817
  20   2.0000      -0.746549       -20.3146
  21   2.0000      -0.740876       -20.1603
  22   2.0000      -0.730644       -19.8818
  23   2.0000      -0.710567       -19.3355
  24   2.0000      -0.708982       -19.2924
  25   2.0000      -0.697071       -18.9683
  26   2.0000      -0.656812       -17.8728
  27   2.0000      -0.652252       -17.7487
  28   2.0000      -0.631247       -17.1771
  29   2.0000      -0.619568       -16.8593
  30   2.0000      -0.614171       -16.7124
  31   2.0000      -0.596143       -16.2219
  32   2.0000      -0.590492       -16.0681
  33   2.0000      -0.577448       -15.7132
  34   2.0000      -0.556623       -15.1465
  35   2.0000      -0.541986       -14.7482
  36   2.0000      -0.538975       -14.6663
  37   2.0000      -0.537232       -14.6188
  38   2.0000      -0.534567       -14.5463
  39   2.0000      -0.524865       -14.2823
  40   2.0000      -0.518349       -14.1050
  41   2.0000      -0.502336       -13.6693
  42   2.0000      -0.498640       -13.5687
  43   2.0000      -0.475804       -12.9473
  44   2.0000      -0.440935       -11.9984
  45   0.0000       0.080583         2.1928
  46   0.0000       0.121339         3.3018
  47   0.0000       0.130319         3.5462
  48   0.0000       0.134590         3.6624
  49   0.0000       0.154970         4.2170

MULLIKEN ATOMIC CHARGES
-----------------------
   0 O :   -0.759648
   1 H :    0.357711
   2 H :    0.382500
   3 O :   -0.760778
   4 H :    0.358717
   5 H :    0.382802
   6 O :   -0.702675
   7 H :    0.386441
   8 H :    0.352659
   9 O :   -0.715414
  10 H :    0.371945
  11 H :    0.333484
  12 O :   -0.715452
  13 H :    0.379712
  14 H :    0.329190
  15 O :   -0.739292
  16 H :    0.363717
  17 H :    0.346852
  18 O :   -0.704381
  19 H :    0.354355
  20 H :    0.385366
  21 O :   -0.742407
  22 H :    0.334330
  23 H :    0.383726
  24 O :   -0.705739
  25 H :    0.359303
  26 H :    0.382977
Sum of atomic charges:    0.0000000

LOEWDIN ATOMIC CHARGES
----------------------
   0 O :   -0.315156
   1 H :    0.162658
   2 H :    0.145410
   3 O :   -0.315281
   4 H :    0.163143
   5 H :    0.145495
   6 O :   -0.277672
   7 H :    0.158447
   8 H :    0.171622
   9 O :   -0.326129
  10 H :    0.149840
  11 H :    0.164984
  12 O :   -0.324808
  13 H :    0.153636
  14 H :    0.164354
  15 O :   -0.362374
  16 H :    0.147379
  17 H :    0.140635
  18 O :   -0.277209
  19 H :    0.169708
  20 H :    0.156459
  21 O :   -0.343372
  22 H :    0.152400
  23 H :    0.145984
  24 O :   -0.277459
  25 H :    0.171854
  26 H :    0.155453

  Mayer bond orders larger than 0.100000
B(  0-O ,  1-H ) :   0.8363 B(  0-O ,  2-H ) :   0.7340 B(  2-H , 24-O ) :   0.1123
B(  3-O ,  4-H ) :   0.8359 B(  3-O ,  5-H ) :   0.7326 B(  5-H , 18-O ) :   0.1145
B(  6-O ,  7-H ) :   0.7997 B(  6-O ,  8-H ) :   0.8365 B(  9-O , 10-H ) :   0.8074
B(  9-O , 11-H ) :   0.8420 B( 12-O , 13-H ) :   0.8005 B( 12-O , 14-H ) :   0.8452
B( 15-O , 16-H ) :   0.8274 B( 15-O , 17-H ) :   0.8181 B( 18-O , 19-H ) :   0.8383
B( 18-O , 20-H ) :   0.7826 B( 21-O , 22-H ) :   0.8522 B( 21-O , 23-H ) :   0.7562
B( 24-O , 25-H ) :   0.8353 B( 24-O , 26-H ) :   0.7867

MP2 TOTAL ENERGY:     -686.915976162 Eh
FINAL SINGLE POINT ENERGY      -686.915976162162

DIPOLE MOMENT
-------------
                                X             Y             Z
Electronic contribution:     -0.16583      -0.18672       0.42485
Nuclear contribution   :     -0.67915      -0.30898       2.18115
                        -----------------------------------------
Total Dipole Moment    :     -0.84498      -0.49570       2.60600
                        -----------------------------------------
Magnitude (a.u.)       :      2.78406
Magnitude (Debye)      :      7.07651

Rotational constants in cm-1:     0.028102     0.014026     0.011748
Rotational constants in MHz :   842.478970   420.489159   352.189619

                             ****ORCA TERMINATED NORMALLY****
TOTAL RUN TIME: 0 days 0 hours 4 minutes 24 seconds 133 msec
