                         Program Version 4.2.0 -  RELEASE  -
|  1> # 12mecn.remya.etal.2.mol0,4,11
|  2> ! MP2 def2-TZVP EnGrad TightSCF
|  3>
|  4> %pal
|  5>     nprocs 6
|  6> end
|  7>
|  8> %maxcore 8000
|  9>
| 10> %scf
| 11>     ConvForced true
| 12> end
| 13>
| 14> *xyz 0 1
| 15> C  -0.869520000  -3.929380000   1.700199000
| 16> H  -0.057420000  -3.268850000   2.015352000
| 17> H  -0.697530000  -4.930670000   2.101524000
| 18> H  -1.821490000  -3.546590000   2.077146000
| 19> C  -0.916080000  -3.969960000   0.256749000
| 20> N  -0.955390000  -3.995980000  -0.909290000
| 21> C  -1.509690000  -0.693960000  -1.610140000
| 22> H  -1.327010000  -1.692700000  -2.017370000
| 23> H  -0.742170000  -0.000650000  -1.964400000
| 24> H  -2.491920000  -0.334310000  -1.929350000
| 25> C  -1.473570000  -0.748120000  -0.167200000
| 26> N  -1.447490000  -0.793720000   0.998938000
| 27> C   4.214163000   3.378139000   1.593627000
| 28> H   3.242643000   3.657109000   2.012358000
| 29> H   4.969258000   4.086643000   1.941290000
| 30> H   4.482966000   2.372549000   1.931698000
| 31> C   4.130759000   3.388436000   0.150192000
| 32> N   4.050180000   3.381449000  -1.013420000
| 33> *
| 34>
| 35>                          ****END OF INPUT****

CARTESIAN COORDINATES (ANGSTROEM)
---------------------------------
  C     -0.869520   -3.929380    1.700199
  H     -0.057420   -3.268850    2.015352
  H     -0.697530   -4.930670    2.101524
  H     -1.821490   -3.546590    2.077146
  C     -0.916080   -3.969960    0.256749
  N     -0.955390   -3.995980   -0.909290
  C     -1.509690   -0.693960   -1.610140
  H     -1.327010   -1.692700   -2.017370
  H     -0.742170   -0.000650   -1.964400
  H     -2.491920   -0.334310   -1.929350
  C     -1.473570   -0.748120   -0.167200
  N     -1.447490   -0.793720    0.998938
  C      4.214163    3.378139    1.593627
  H      3.242643    3.657109    2.012358
  H      4.969258    4.086643    1.941290
  H      4.482966    2.372549    1.931698
  C      4.130759    3.388436    0.150192
  N      4.050180    3.381449   -1.013420

 Total Charge           Charge          ....    0
 Multiplicity           Mult            ....    1
 Number of Electrons    NEL             ....   66
 Basis Dimension        Dim             ....  333

ORBITAL ENERGIES
----------------

  NO   OCC          E(Eh)            E(eV)
   0   2.0000     -15.573576      -423.7786
   1   2.0000     -15.570106      -423.6841
   2   2.0000     -15.569790      -423.6755
   3   2.0000     -11.285017      -307.0809
   4   2.0000     -11.281986      -306.9984
   5   2.0000     -11.281662      -306.9896
   6   2.0000     -11.280781      -306.9657
   7   2.0000     -11.273046      -306.7552
   8   2.0000     -11.270882      -306.6963
   9   2.0000      -1.216595       -33.1052
  10   2.0000      -1.215239       -33.0683
  11   2.0000      -1.212346       -32.9896
  12   2.0000      -1.043649       -28.3991
  13   2.0000      -1.036095       -28.1936
  14   2.0000      -1.033416       -28.1207
  15   2.0000      -0.700617       -19.0648
  16   2.0000      -0.693487       -18.8707
  17   2.0000      -0.689569       -18.7641
  18   2.0000      -0.631761       -17.1911
  19   2.0000      -0.630857       -17.1665
  20   2.0000      -0.629159       -17.1203
  21   2.0000      -0.622722       -16.9451
  22   2.0000      -0.619960       -16.8700
  23   2.0000      -0.615532       -16.7495
  24   2.0000      -0.557994       -15.1838
  25   2.0000      -0.556621       -15.1464
  26   2.0000      -0.555157       -15.1066
  27   2.0000      -0.462302       -12.5799
  28   2.0000      -0.458357       -12.4725
  29   2.0000      -0.458206       -12.4684
  30   2.0000      -0.457531       -12.4501
  31   2.0000      -0.455979       -12.4078
  32   2.0000      -0.451323       -12.2811
  33   0.0000       0.118944         3.2366
  34   0.0000       0.126663         3.4467
  35   0.0000       0.145462         3.9582
  36   0.0000       0.170991         4.6529
  37   0.0000       0.171757         4.6737

MULLIKEN ATOMIC CHARGES
-----------------------
   0 C :   -0.257911
   1 H :    0.174550
   2 H :    0.171266
   3 H :    0.177997
   4 C :   -0.120769
   5 N :   -0.144843
   6 C :   -0.286156
   7 H :    0.204519
   8 H :    0.171696
   9 H :    0.165866
  10 C :   -0.114267
  11 N :   -0.141955
  12 C :   -0.279729
  13 H :    0.173881
  14 H :    0.171878
  15 H :    0.172356
  16 C :   -0.145345
  17 N :   -0.093033
Sum of atomic charges:   -0.0000000

LOEWDIN ATOMIC CHARGES
----------------------
   0 C :   -0.284348
   1 H :    0.156132
   2 H :    0.148811
   3 H :    0.156908
   4 C :   -0.210617
   5 N :    0.029903
   6 C :   -0.280938
   7 H :    0.157213
   8 H :    0.153470
   9 H :    0.152422
  10 C :   -0.210090
  11 N :    0.031129
  12 C :   -0.283679
  13 H :    0.153556
  14 H :    0.151008
  15 H :    0.153249
  16 C :   -0.218982
  17 N :    0.044851

  Mayer bond orders larger than 0.100000
B(  0-C ,  1-H ) :   0.9130 B(  0-C ,  2-H ) :   0.9107 B(  0-C ,  3-H ) :   0.9122
B(  0-C ,  4-C ) :   0.9125 B(  4-C ,  5-N ) :   2.7798 B(  6-C ,  7-H ) :   0.9029
B(  6-C ,  8-H ) :   0.9146 B(  6-C ,  9-H ) :   0.9153 B(  6-C , 10-C ) :   0.8983
B( 10-C , 11-N ) :   2.7985 B( 12-C , 13-H ) :   0.9158 B( 12-C , 14-H ) :   0.9166
B( 12-C , 15-H ) :   0.9161 B( 12-C , 16-C ) :   0.9027 B( 16-C , 17-N ) :   2.8381

MP2 TOTAL ENERGY:     -397.459625363 Eh
FINAL SINGLE POINT ENERGY      -397.459625363423

DIPOLE MOMENT
-------------
                                X             Y             Z
Electronic contribution:     -0.19213      -0.19591      -3.13558
Nuclear contribution   :      0.30254       0.29355       4.65659
                        -----------------------------------------
Total Dipole Moment    :      0.11041       0.09764       1.52101
                        -----------------------------------------
Magnitude (a.u.)       :      1.52814
Magnitude (Debye)      :      3.88422

Rotational constants in cm-1:     0.054533     0.008991     0.008541
Rotational constants in MHz :  1634.857495   269.529612   256.055122

                             ****ORCA TERMINATED NORMALLY****
TOTAL RUN TIME: 0 days 0 hours 2 minutes 42 seconds 454 msec
