                         Program Version 4.2.0 -  RELEASE  -
|  1> # 12h2o.su.etal.mol1,3,4,5,6,8,9,10
|  2> ! MP2 def2-TZVP EnGrad TightSCF
|  3>
|  4> %pal
|  5>     nprocs 6
|  6> end
|  7>
|  8> %maxcore 8000
|  9>
| 10> %scf
| 11>     ConvForced true
| 12> end
| 13>
| 14> *xyz 0 1
| 15> O  -1.794470000  -0.923410000   2.768350000
| 16> H  -2.338250000  -1.359750000   3.430940000
| 17> H  -0.879480000  -1.303000000   2.865760000
| 18> O  -1.752130000  -0.741530000  -2.896280000
| 19> H  -2.036450000  -0.920500000  -1.984040000
| 20> H  -0.921210000  -1.242140000  -2.984230000
| 21> O  -0.885520000   1.737840000   0.052730000
| 22> H  -1.032320000   2.090180000  -0.841890000
| 23> H  -1.284090000   0.839590000   0.017130000
| 24> O   0.885520000  -1.737840000   0.052730000
| 25> H   1.284090000  -0.839590000   0.017130000
| 26> H   1.032320000  -2.090180000  -0.841890000
| 27> O   1.737840000   0.885520000  -0.052730000
| 28> H   2.090180000   1.032320000   0.841890000
| 29> H   0.839590000   1.284090000  -0.017130000
| 30> O   1.752130000   0.741530000  -2.896280000
| 31> H   2.036450000   0.920500000  -1.984040000
| 32> H   0.921210000   1.242140000  -2.984230000
| 33> O   0.741530000  -1.752130000   2.896280000
| 34> H   0.920500000  -2.036450000   1.984040000
| 35> H   1.242140000  -0.921210000   2.984230000
| 36> O  -0.923410000   1.794470000  -2.768350000
| 37> H  -1.359750000   2.338250000  -3.430940000
| 38> H  -1.303000000   0.879480000  -2.865760000
| 39> *
| 40>
| 41>                          ****END OF INPUT****

CARTESIAN COORDINATES (ANGSTROEM)
---------------------------------
  O     -1.794470   -0.923410    2.768350
  H     -2.338250   -1.359750    3.430940
  H     -0.879480   -1.303000    2.865760
  O     -1.752130   -0.741530   -2.896280
  H     -2.036450   -0.920500   -1.984040
  H     -0.921210   -1.242140   -2.984230
  O     -0.885520    1.737840    0.052730
  H     -1.032320    2.090180   -0.841890
  H     -1.284090    0.839590    0.017130
  O      0.885520   -1.737840    0.052730
  H      1.284090   -0.839590    0.017130
  H      1.032320   -2.090180   -0.841890
  O      1.737840    0.885520   -0.052730
  H      2.090180    1.032320    0.841890
  H      0.839590    1.284090   -0.017130
  O      1.752130    0.741530   -2.896280
  H      2.036450    0.920500   -1.984040
  H      0.921210    1.242140   -2.984230
  O      0.741530   -1.752130    2.896280
  H      0.920500   -2.036450    1.984040
  H      1.242140   -0.921210    2.984230
  O     -0.923410    1.794470   -2.768350
  H     -1.359750    2.338250   -3.430940
  H     -1.303000    0.879480   -2.865760

 Total Charge           Charge          ....    0
 Multiplicity           Mult            ....    1
 Number of Electrons    NEL             ....   80
 Basis Dimension        Dim             ....  344

ORBITAL ENERGIES
----------------

  NO   OCC          E(Eh)            E(eV)
   0   2.0000     -20.617879      -561.0410
   1   2.0000     -20.586524      -560.1878
   2   2.0000     -20.580592      -560.0264
   3   2.0000     -20.576049      -559.9028
   4   2.0000     -20.571353      -559.7750
   5   2.0000     -20.568381      -559.6941
   6   2.0000     -20.523018      -558.4597
   7   2.0000     -20.514866      -558.2379
   8   2.0000      -1.404410       -38.2159
   9   2.0000      -1.380442       -37.5637
  10   2.0000      -1.367664       -37.2160
  11   2.0000      -1.361992       -37.0617
  12   2.0000      -1.353948       -36.8428
  13   2.0000      -1.347025       -36.6544
  14   2.0000      -1.307993       -35.5923
  15   2.0000      -1.296779       -35.2871
  16   2.0000      -0.759966       -20.6797
  17   2.0000      -0.748604       -20.3705
  18   2.0000      -0.740256       -20.1434
  19   2.0000      -0.728694       -19.8288
  20   2.0000      -0.721757       -19.6400
  21   2.0000      -0.716435       -19.4952
  22   2.0000      -0.687187       -18.6993
  23   2.0000      -0.684619       -18.6294
  24   2.0000      -0.650584       -17.7033
  25   2.0000      -0.630165       -17.1477
  26   2.0000      -0.615842       -16.7579
  27   2.0000      -0.604746       -16.4560
  28   2.0000      -0.594338       -16.1727
  29   2.0000      -0.585470       -15.9315
  30   2.0000      -0.556354       -15.1392
  31   2.0000      -0.546334       -14.8665
  32   2.0000      -0.544376       -14.8132
  33   2.0000      -0.529539       -14.4095
  34   2.0000      -0.521845       -14.2001
  35   2.0000      -0.517962       -14.0945
  36   2.0000      -0.517271       -14.0757
  37   2.0000      -0.500597       -13.6219
  38   2.0000      -0.472876       -12.8676
  39   2.0000      -0.465478       -12.6663
  40   0.0000       0.077348         2.1047
  41   0.0000       0.107241         2.9182
  42   0.0000       0.134010         3.6466
  43   0.0000       0.144472         3.9313
  44   0.0000       0.167982         4.5710

MULLIKEN ATOMIC CHARGES
-----------------------
   0 O :   -0.739252
   1 H :    0.323393
   2 H :    0.370257
   3 O :   -0.683242
   4 H :    0.363263
   5 H :    0.369313
   6 O :   -0.696556
   7 H :    0.380491
   8 H :    0.348480
   9 O :   -0.734658
  10 H :    0.357946
  11 H :    0.341938
  12 O :   -0.733879
  13 H :    0.349923
  14 H :    0.378872
  15 O :   -0.732029
  16 H :    0.367932
  17 H :    0.349602
  18 O :   -0.689924
  19 H :    0.389534
  20 H :    0.334486
  21 O :   -0.754165
  22 H :    0.355965
  23 H :    0.382310
Sum of atomic charges:   -0.0000000

LOEWDIN ATOMIC CHARGES
----------------------
   0 O :   -0.376259
   1 H :    0.147976
   2 H :    0.142732
   3 O :   -0.264593
   4 H :    0.174851
   5 H :    0.179197
   6 O :   -0.291613
   7 H :    0.152789
   8 H :    0.171864
   9 O :   -0.341106
  10 H :    0.142108
  11 H :    0.163008
  12 O :   -0.294085
  13 H :    0.166113
  14 H :    0.148854
  15 O :   -0.354879
  16 H :    0.148432
  17 H :    0.141166
  18 O :   -0.275726
  19 H :    0.160256
  20 H :    0.164575
  21 O :   -0.313469
  22 H :    0.161912
  23 H :    0.145898

  Mayer bond orders larger than 0.100000
B(  0-O ,  1-H ) :   0.8612 B(  0-O ,  2-H ) :   0.7769 B(  3-O ,  4-H ) :   0.8325
B(  3-O ,  5-H ) :   0.8249 B(  6-O ,  7-H ) :   0.7968 B(  6-O ,  8-H ) :   0.8341
B(  6-O , 14-H ) :   0.1115 B(  9-O , 10-H ) :   0.7708 B(  9-O , 11-H ) :   0.8466
B( 12-O , 13-H ) :   0.8393 B( 12-O , 14-H ) :   0.7463 B( 15-O , 16-H ) :   0.8257
B( 15-O , 17-H ) :   0.8231 B( 18-O , 19-H ) :   0.7962 B( 18-O , 20-H ) :   0.8503
B( 21-O , 22-H ) :   0.8373 B( 21-O , 23-H ) :   0.7487

MP2 TOTAL ENERGY:     -610.580115770 Eh
FINAL SINGLE POINT ENERGY      -610.580115770104

DIPOLE MOMENT
-------------
                                X             Y             Z
Electronic contribution:     -0.10792       0.04146      -0.27636
Nuclear contribution   :     -0.25891      -0.07922      -0.08817
                        -----------------------------------------
Total Dipole Moment    :     -0.36683      -0.03776      -0.36453
                        -----------------------------------------
Magnitude (a.u.)       :      0.51853
Magnitude (Debye)      :      1.31800

Rotational constants in cm-1:     0.037026     0.017123     0.015517
Rotational constants in MHz :  1110.002707   513.339032   465.194912

                             ****ORCA TERMINATED NORMALLY****
TOTAL RUN TIME: 0 days 0 hours 3 minutes 8 seconds 476 msec
