                         Program Version 4.2.0 -  RELEASE  -
|  1> # 12h2o.su.etal.mol1,4,5,7,8,9
|  2> ! MP2 def2-TZVP EnGrad TightSCF
|  3>
|  4> %pal
|  5>     nprocs 6
|  6> end
|  7>
|  8> %maxcore 8000
|  9>
| 10> %scf
| 11>     ConvForced true
| 12> end
| 13>
| 14> *xyz 0 1
| 15> O  -1.794470000  -0.923410000   2.768350000
| 16> H  -2.338250000  -1.359750000   3.430940000
| 17> H  -0.879480000  -1.303000000   2.865760000
| 18> O  -0.885520000   1.737840000   0.052730000
| 19> H  -1.032320000   2.090180000  -0.841890000
| 20> H  -1.284090000   0.839590000   0.017130000
| 21> O   0.885520000  -1.737840000   0.052730000
| 22> H   1.284090000  -0.839590000   0.017130000
| 23> H   1.032320000  -2.090180000  -0.841890000
| 24> O  -1.737840000  -0.885520000  -0.052730000
| 25> H  -2.090180000  -1.032320000   0.841890000
| 26> H  -0.839590000  -1.284090000  -0.017130000
| 27> O   1.752130000   0.741530000  -2.896280000
| 28> H   2.036450000   0.920500000  -1.984040000
| 29> H   0.921210000   1.242140000  -2.984230000
| 30> O   0.741530000  -1.752130000   2.896280000
| 31> H   0.920500000  -2.036450000   1.984040000
| 32> H   1.242140000  -0.921210000   2.984230000
| 33> *
| 34>
| 35>                          ****END OF INPUT****

CARTESIAN COORDINATES (ANGSTROEM)
---------------------------------
  O     -1.794470   -0.923410    2.768350
  H     -2.338250   -1.359750    3.430940
  H     -0.879480   -1.303000    2.865760
  O     -0.885520    1.737840    0.052730
  H     -1.032320    2.090180   -0.841890
  H     -1.284090    0.839590    0.017130
  O      0.885520   -1.737840    0.052730
  H      1.284090   -0.839590    0.017130
  H      1.032320   -2.090180   -0.841890
  O     -1.737840   -0.885520   -0.052730
  H     -2.090180   -1.032320    0.841890
  H     -0.839590   -1.284090   -0.017130
  O      1.752130    0.741530   -2.896280
  H      2.036450    0.920500   -1.984040
  H      0.921210    1.242140   -2.984230
  O      0.741530   -1.752130    2.896280
  H      0.920500   -2.036450    1.984040
  H      1.242140   -0.921210    2.984230

 Total Charge           Charge          ....    0
 Multiplicity           Mult            ....    1
 Number of Electrons    NEL             ....   60
 Basis Dimension        Dim             ....  258

ORBITAL ENERGIES
----------------

  NO   OCC          E(Eh)            E(eV)
   0   2.0000     -20.628595      -561.3326
   1   2.0000     -20.588742      -560.2482
   2   2.0000     -20.580942      -560.0359
   3   2.0000     -20.539768      -558.9155
   4   2.0000     -20.534145      -558.7625
   5   2.0000     -20.527940      -558.5936
   6   2.0000      -1.411940       -38.4208
   7   2.0000      -1.376855       -37.4661
   8   2.0000      -1.359826       -37.0027
   9   2.0000      -1.330455       -36.2035
  10   2.0000      -1.319629       -35.9089
  11   2.0000      -1.305464       -35.5235
  12   2.0000      -0.771078       -20.9821
  13   2.0000      -0.738825       -20.1045
  14   2.0000      -0.722836       -19.6694
  15   2.0000      -0.709134       -19.2965
  16   2.0000      -0.701772       -19.0962
  17   2.0000      -0.680456       -18.5162
  18   2.0000      -0.655916       -17.8484
  19   2.0000      -0.610105       -16.6018
  20   2.0000      -0.599471       -16.3124
  21   2.0000      -0.597303       -16.2534
  22   2.0000      -0.564744       -15.3675
  23   2.0000      -0.560695       -15.2573
  24   2.0000      -0.537981       -14.6392
  25   2.0000      -0.524704       -14.2779
  26   2.0000      -0.520318       -14.1586
  27   2.0000      -0.488260       -13.2862
  28   2.0000      -0.481648       -13.1063
  29   2.0000      -0.474358       -12.9079
  30   0.0000       0.074361         2.0235
  31   0.0000       0.120029         3.2662
  32   0.0000       0.139731         3.8023
  33   0.0000       0.151641         4.1264
  34   0.0000       0.168205         4.5771

MULLIKEN ATOMIC CHARGES
-----------------------
   0 O :   -0.733352
   1 H :    0.335300
   2 H :    0.369472
   3 O :   -0.723284
   4 H :    0.312773
   5 H :    0.366365
   6 O :   -0.716230
   7 H :    0.360175
   8 H :    0.381950
   9 O :   -0.728464
  10 H :    0.380633
  11 H :    0.346470
  12 O :   -0.672631
  13 H :    0.330271
  14 H :    0.343601
  15 O :   -0.690591
  16 H :    0.385090
  17 H :    0.352453
Sum of atomic charges:   -0.0000000

LOEWDIN ATOMIC CHARGES
----------------------
   0 O :   -0.338743
   1 H :    0.153318
   2 H :    0.143834
   3 O :   -0.365254
   4 H :    0.149806
   5 H :    0.142935
   6 O :   -0.276472
   7 H :    0.178589
   8 H :    0.183369
   9 O :   -0.317857
  10 H :    0.151431
  11 H :    0.135722
  12 O :   -0.328075
  13 H :    0.159688
  14 H :    0.168830
  15 O :   -0.272463
  16 H :    0.157911
  17 H :    0.173431

  Mayer bond orders larger than 0.100000
B(  0-O ,  1-H ) :   0.8514 B(  0-O ,  2-H ) :   0.7657 B(  3-O ,  4-H ) :   0.8650
B(  3-O ,  5-H ) :   0.7747 B(  5-H ,  9-O ) :   0.1046 B(  6-O ,  7-H ) :   0.8234
B(  6-O ,  8-H ) :   0.8204 B(  9-O , 10-H ) :   0.7962 B(  9-O , 11-H ) :   0.8102
B( 12-O , 13-H ) :   0.8550 B( 12-O , 14-H ) :   0.8475 B( 15-O , 16-H ) :   0.8071
B( 15-O , 17-H ) :   0.8404

MP2 TOTAL ENERGY:     -457.921529309 Eh
FINAL SINGLE POINT ENERGY      -457.921529309486

DIPOLE MOMENT
-------------
                                X             Y             Z
Electronic contribution:      0.23308      -0.42050       0.09850
Nuclear contribution   :      0.87406      -0.11247      -0.14168
                        -----------------------------------------
Total Dipole Moment    :      1.10715      -0.53297      -0.04319
                        -----------------------------------------
Magnitude (a.u.)       :      1.22951
Magnitude (Debye)      :      3.12516

Rotational constants in cm-1:     0.062876     0.028079     0.023006
Rotational constants in MHz :  1884.972161   841.801477   689.697082

                             ****ORCA TERMINATED NORMALLY****
TOTAL RUN TIME: 0 days 0 hours 1 minutes 5 seconds 323 msec
