                         Program Version 4.2.0 -  RELEASE  -
|  1> # 12h2o.su.etal.mol0,6,7,9,10,11
|  2> ! MP2 def2-TZVP EnGrad TightSCF
|  3>
|  4> %pal
|  5>     nprocs 6
|  6> end
|  7>
|  8> %maxcore 8000
|  9>
| 10> %scf
| 11>     ConvForced true
| 12> end
| 13>
| 14> *xyz 0 1
| 15> O   1.794470000   0.923410000   2.768350000
| 16> H   2.338250000   1.359750000   3.430940000
| 17> H   0.879480000   1.303000000   2.865760000
| 18> O   1.737840000   0.885520000  -0.052730000
| 19> H   2.090180000   1.032320000   0.841890000
| 20> H   0.839590000   1.284090000  -0.017130000
| 21> O  -1.737840000  -0.885520000  -0.052730000
| 22> H  -2.090180000  -1.032320000   0.841890000
| 23> H  -0.839590000  -1.284090000  -0.017130000
| 24> O   0.741530000  -1.752130000   2.896280000
| 25> H   0.920500000  -2.036450000   1.984040000
| 26> H   1.242140000  -0.921210000   2.984230000
| 27> O  -0.923410000   1.794470000  -2.768350000
| 28> H  -1.359750000   2.338250000  -3.430940000
| 29> H  -1.303000000   0.879480000  -2.865760000
| 30> O  -0.741530000   1.752130000   2.896280000
| 31> H  -0.920500000   2.036450000   1.984040000
| 32> H  -1.242140000   0.921210000   2.984230000
| 33> *
| 34>
| 35>                          ****END OF INPUT****

CARTESIAN COORDINATES (ANGSTROEM)
---------------------------------
  O      1.794470    0.923410    2.768350
  H      2.338250    1.359750    3.430940
  H      0.879480    1.303000    2.865760
  O      1.737840    0.885520   -0.052730
  H      2.090180    1.032320    0.841890
  H      0.839590    1.284090   -0.017130
  O     -1.737840   -0.885520   -0.052730
  H     -2.090180   -1.032320    0.841890
  H     -0.839590   -1.284090   -0.017130
  O      0.741530   -1.752130    2.896280
  H      0.920500   -2.036450    1.984040
  H      1.242140   -0.921210    2.984230
  O     -0.923410    1.794470   -2.768350
  H     -1.359750    2.338250   -3.430940
  H     -1.303000    0.879480   -2.865760
  O     -0.741530    1.752130    2.896280
  H     -0.920500    2.036450    1.984040
  H     -1.242140    0.921210    2.984230

 Total Charge           Charge          ....    0
 Multiplicity           Mult            ....    1
 Number of Electrons    NEL             ....   60
 Basis Dimension        Dim             ....  258

ORBITAL ENERGIES
----------------

  NO   OCC          E(Eh)            E(eV)
   0   2.0000     -20.615426      -560.9743
   1   2.0000     -20.576486      -559.9147
   2   2.0000     -20.573635      -559.8371
   3   2.0000     -20.557297      -559.3925
   4   2.0000     -20.545788      -559.0793
   5   2.0000     -20.533879      -558.7553
   6   2.0000      -1.401672       -38.1414
   7   2.0000      -1.360097       -37.0101
   8   2.0000      -1.352233       -36.7961
   9   2.0000      -1.332614       -36.2623
  10   2.0000      -1.327525       -36.1238
  11   2.0000      -1.312552       -35.7163
  12   2.0000      -0.757627       -20.6161
  13   2.0000      -0.742226       -20.1970
  14   2.0000      -0.714399       -19.4398
  15   2.0000      -0.700797       -19.0697
  16   2.0000      -0.696925       -18.9643
  17   2.0000      -0.682479       -18.5712
  18   2.0000      -0.642814       -17.4919
  19   2.0000      -0.604439       -16.4476
  20   2.0000      -0.592202       -16.1146
  21   2.0000      -0.573076       -15.5942
  22   2.0000      -0.569089       -15.4857
  23   2.0000      -0.559101       -15.2139
  24   2.0000      -0.542945       -14.7743
  25   2.0000      -0.519418       -14.1341
  26   2.0000      -0.515424       -14.0254
  27   2.0000      -0.500497       -13.6192
  28   2.0000      -0.493151       -13.4193
  29   2.0000      -0.479118       -13.0375
  30   0.0000       0.078421         2.1339
  31   0.0000       0.130122         3.5408
  32   0.0000       0.133088         3.6215
  33   0.0000       0.140116         3.8128
  34   0.0000       0.159537         4.3412

MULLIKEN ATOMIC CHARGES
-----------------------
   0 O :   -0.748967
   1 H :    0.351916
   2 H :    0.379950
   3 O :   -0.694773
   4 H :    0.362393
   5 H :    0.321062
   6 O :   -0.681916
   7 H :    0.334530
   8 H :    0.346254
   9 O :   -0.712369
  10 H :    0.327996
  11 H :    0.365195
  12 O :   -0.686413
  13 H :    0.335788
  14 H :    0.351460
  15 O :   -0.682129
  16 H :    0.364138
  17 H :    0.365886
Sum of atomic charges:   -0.0000000

LOEWDIN ATOMIC CHARGES
----------------------
   0 O :   -0.312152
   1 H :    0.159984
   2 H :    0.145436
   3 O :   -0.344341
   4 H :    0.146058
   5 H :    0.159256
   6 O :   -0.334852
   7 H :    0.162114
   8 H :    0.172539
   9 O :   -0.347474
  10 H :    0.157336
  11 H :    0.147817
  12 O :   -0.339895
  13 H :    0.156665
  14 H :    0.183670
  15 O :   -0.265054
  16 H :    0.175345
  17 H :    0.177548

  Mayer bond orders larger than 0.100000
B(  0-O ,  1-H ) :   0.8393 B(  0-O ,  2-H ) :   0.7517 B(  3-O ,  4-H ) :   0.8190
B(  3-O ,  5-H ) :   0.8549 B(  6-O ,  7-H ) :   0.8525 B(  6-O ,  8-H ) :   0.8399
B(  9-O , 10-H ) :   0.8561 B(  9-O , 11-H ) :   0.8085 B( 12-O , 13-H ) :   0.8543
B( 12-O , 14-H ) :   0.8388 B( 15-O , 16-H ) :   0.8316 B( 15-O , 17-H ) :   0.8278

MP2 TOTAL ENERGY:     -457.910184351 Eh
FINAL SINGLE POINT ENERGY      -457.910184351007

DIPOLE MOMENT
-------------
                                X             Y             Z
Electronic contribution:     -0.03526       0.19926       0.13504
Nuclear contribution   :     -0.98813       0.37017       0.17634
                        -----------------------------------------
Total Dipole Moment    :     -1.02339       0.56943       0.31139
                        -----------------------------------------
Magnitude (a.u.)       :      1.21183
Magnitude (Debye)      :      3.08024

Rotational constants in cm-1:     0.051534     0.024762     0.022565
Rotational constants in MHz :  1544.948253   742.359476   676.470236

                             ****ORCA TERMINATED NORMALLY****
TOTAL RUN TIME: 0 days 0 hours 0 minutes 58 seconds 77 msec
