                         Program Version 4.2.0 -  RELEASE  -
|  1> # 12h2o.su.etal.mol0,1,5,6,7,8,9,11
|  2> ! MP2 def2-TZVP EnGrad TightSCF
|  3>
|  4> %pal
|  5>     nprocs 6
|  6> end
|  7>
|  8> %maxcore 8000
|  9>
| 10> %scf
| 11>     ConvForced true
| 12> end
| 13>
| 14> *xyz 0 1
| 15> O   1.794470000   0.923410000   2.768350000
| 16> H   2.338250000   1.359750000   3.430940000
| 17> H   0.879480000   1.303000000   2.865760000
| 18> O  -1.794470000  -0.923410000   2.768350000
| 19> H  -2.338250000  -1.359750000   3.430940000
| 20> H  -0.879480000  -1.303000000   2.865760000
| 21> O   0.885520000  -1.737840000   0.052730000
| 22> H   1.284090000  -0.839590000   0.017130000
| 23> H   1.032320000  -2.090180000  -0.841890000
| 24> O   1.737840000   0.885520000  -0.052730000
| 25> H   2.090180000   1.032320000   0.841890000
| 26> H   0.839590000   1.284090000  -0.017130000
| 27> O  -1.737840000  -0.885520000  -0.052730000
| 28> H  -2.090180000  -1.032320000   0.841890000
| 29> H  -0.839590000  -1.284090000  -0.017130000
| 30> O   1.752130000   0.741530000  -2.896280000
| 31> H   2.036450000   0.920500000  -1.984040000
| 32> H   0.921210000   1.242140000  -2.984230000
| 33> O   0.741530000  -1.752130000   2.896280000
| 34> H   0.920500000  -2.036450000   1.984040000
| 35> H   1.242140000  -0.921210000   2.984230000
| 36> O  -0.741530000   1.752130000   2.896280000
| 37> H  -0.920500000   2.036450000   1.984040000
| 38> H  -1.242140000   0.921210000   2.984230000
| 39> *
| 40>
| 41>                          ****END OF INPUT****

CARTESIAN COORDINATES (ANGSTROEM)
---------------------------------
  O      1.794470    0.923410    2.768350
  H      2.338250    1.359750    3.430940
  H      0.879480    1.303000    2.865760
  O     -1.794470   -0.923410    2.768350
  H     -2.338250   -1.359750    3.430940
  H     -0.879480   -1.303000    2.865760
  O      0.885520   -1.737840    0.052730
  H      1.284090   -0.839590    0.017130
  H      1.032320   -2.090180   -0.841890
  O      1.737840    0.885520   -0.052730
  H      2.090180    1.032320    0.841890
  H      0.839590    1.284090   -0.017130
  O     -1.737840   -0.885520   -0.052730
  H     -2.090180   -1.032320    0.841890
  H     -0.839590   -1.284090   -0.017130
  O      1.752130    0.741530   -2.896280
  H      2.036450    0.920500   -1.984040
  H      0.921210    1.242140   -2.984230
  O      0.741530   -1.752130    2.896280
  H      0.920500   -2.036450    1.984040
  H      1.242140   -0.921210    2.984230
  O     -0.741530    1.752130    2.896280
  H     -0.920500    2.036450    1.984040
  H     -1.242140    0.921210    2.984230

 Total Charge           Charge          ....    0
 Multiplicity           Mult            ....    1
 Number of Electrons    NEL             ....   80
 Basis Dimension        Dim             ....  344

ORBITAL ENERGIES
----------------

  NO   OCC          E(Eh)            E(eV)
   0   2.0000     -20.604840      -560.6862
   1   2.0000     -20.593100      -560.3667
   2   2.0000     -20.590805      -560.3043
   3   2.0000     -20.578602      -559.9722
   4   2.0000     -20.568320      -559.6924
   5   2.0000     -20.562635      -559.5378
   6   2.0000     -20.543718      -559.0230
   7   2.0000     -20.509429      -558.0899
   8   2.0000      -1.396374       -37.9973
   9   2.0000      -1.387691       -37.7610
  10   2.0000      -1.369750       -37.2728
  11   2.0000      -1.368274       -37.2326
  12   2.0000      -1.360340       -37.0167
  13   2.0000      -1.343020       -36.5454
  14   2.0000      -1.325645       -36.0726
  15   2.0000      -1.293602       -35.2007
  16   2.0000      -0.758100       -20.6289
  17   2.0000      -0.751945       -20.4615
  18   2.0000      -0.745536       -20.2871
  19   2.0000      -0.736418       -20.0389
  20   2.0000      -0.730065       -19.8661
  21   2.0000      -0.719324       -19.5738
  22   2.0000      -0.696907       -18.9638
  23   2.0000      -0.677316       -18.4307
  24   2.0000      -0.655847       -17.8465
  25   2.0000      -0.629290       -17.1238
  26   2.0000      -0.625896       -17.0315
  27   2.0000      -0.609675       -16.5901
  28   2.0000      -0.598195       -16.2777
  29   2.0000      -0.579818       -15.7776
  30   2.0000      -0.564444       -15.3593
  31   2.0000      -0.551782       -15.0148
  32   2.0000      -0.542510       -14.7625
  33   2.0000      -0.536736       -14.6053
  34   2.0000      -0.535308       -14.5665
  35   2.0000      -0.518112       -14.0985
  36   2.0000      -0.508001       -13.8234
  37   2.0000      -0.503811       -13.7094
  38   2.0000      -0.490048       -13.3349
  39   2.0000      -0.460440       -12.5292
  40   0.0000       0.085696         2.3319
  41   0.0000       0.130729         3.5573
  42   0.0000       0.138695         3.7741
  43   0.0000       0.141673         3.8551
  44   0.0000       0.167496         4.5578

MULLIKEN ATOMIC CHARGES
-----------------------
   0 O :   -0.763250
   1 H :    0.359713
   2 H :    0.383768
   3 O :   -0.757982
   4 H :    0.350703
   5 H :    0.382910
   6 O :   -0.741308
   7 H :    0.373302
   8 H :    0.368886
   9 O :   -0.725576
  10 H :    0.393480
  11 H :    0.346755
  12 O :   -0.741239
  13 H :    0.359626
  14 H :    0.341753
  15 O :   -0.695084
  16 H :    0.368266
  17 H :    0.327269
  18 O :   -0.721846
  19 H :    0.389700
  20 H :    0.367931
  21 O :   -0.705608
  22 H :    0.350559
  23 H :    0.387272
Sum of atomic charges:   -0.0000000

LOEWDIN ATOMIC CHARGES
----------------------
   0 O :   -0.316188
   1 H :    0.163581
   2 H :    0.145711
   3 O :   -0.315962
   4 H :    0.159096
   5 H :    0.145932
   6 O :   -0.296735
   7 H :    0.146264
   8 H :    0.175859
   9 O :   -0.280999
  10 H :    0.157532
  11 H :    0.172087
  12 O :   -0.373471
  13 H :    0.142205
  14 H :    0.133467
  15 O :   -0.338484
  16 H :    0.149379
  17 H :    0.161692
  18 O :   -0.284639
  19 H :    0.157849
  20 H :    0.148745
  21 O :   -0.278122
  22 H :    0.167809
  23 H :    0.157392

  Mayer bond orders larger than 0.100000
B(  0-O ,  1-H ) :   0.8356 B(  0-O ,  2-H ) :   0.7305 B(  2-H , 21-O ) :   0.1172
B(  3-O ,  4-H ) :   0.8398 B(  3-O ,  5-H ) :   0.7276 B(  5-H , 18-O ) :   0.1206
B(  6-O ,  7-H ) :   0.7673 B(  6-O ,  8-H ) :   0.8282 B(  9-O , 10-H ) :   0.7833
B(  9-O , 11-H ) :   0.8311 B( 12-O , 13-H ) :   0.8249 B( 12-O , 14-H ) :   0.8085
B( 15-O , 16-H ) :   0.8240 B( 15-O , 17-H ) :   0.8583 B( 18-O , 19-H ) :   0.8004
B( 18-O , 20-H ) :   0.8030 B( 21-O , 22-H ) :   0.8403 B( 21-O , 23-H ) :   0.7765

MP2 TOTAL ENERGY:     -610.598916880 Eh
FINAL SINGLE POINT ENERGY      -610.598916880267

DIPOLE MOMENT
-------------
                                X             Y             Z
Electronic contribution:      0.30797      -0.07483       0.14502
Nuclear contribution   :     -0.00102       1.02005       1.35336
                        -----------------------------------------
Total Dipole Moment    :      0.30695       0.94522       1.49838
                        -----------------------------------------
Magnitude (a.u.)       :      1.79800
Magnitude (Debye)      :      4.57014

Rotational constants in cm-1:     0.035852     0.020804     0.018242
Rotational constants in MHz :  1074.815412   623.698178   546.867741

                             ****ORCA TERMINATED NORMALLY****
TOTAL RUN TIME: 0 days 0 hours 3 minutes 29 seconds 704 msec
