                         Program Version 4.2.0 -  RELEASE  -
|  1> # 12h2o.su.etal.mol2,3,4,5,8,9,11
|  2> ! MP2 def2-TZVP EnGrad TightSCF
|  3>
|  4> %pal
|  5>     nprocs 6
|  6> end
|  7>
|  8> %maxcore 8000
|  9>
| 10> %scf
| 11>     ConvForced true
| 12> end
| 13>
| 14> *xyz 0 1
| 15> O   0.923410000  -1.794470000  -2.768350000
| 16> H   1.359750000  -2.338250000  -3.430940000
| 17> H   1.303000000  -0.879480000  -2.865760000
| 18> O  -1.752130000  -0.741530000  -2.896280000
| 19> H  -2.036450000  -0.920500000  -1.984040000
| 20> H  -0.921210000  -1.242140000  -2.984230000
| 21> O  -0.885520000   1.737840000   0.052730000
| 22> H  -1.032320000   2.090180000  -0.841890000
| 23> H  -1.284090000   0.839590000   0.017130000
| 24> O   0.885520000  -1.737840000   0.052730000
| 25> H   1.284090000  -0.839590000   0.017130000
| 26> H   1.032320000  -2.090180000  -0.841890000
| 27> O   1.752130000   0.741530000  -2.896280000
| 28> H   2.036450000   0.920500000  -1.984040000
| 29> H   0.921210000   1.242140000  -2.984230000
| 30> O   0.741530000  -1.752130000   2.896280000
| 31> H   0.920500000  -2.036450000   1.984040000
| 32> H   1.242140000  -0.921210000   2.984230000
| 33> O  -0.741530000   1.752130000   2.896280000
| 34> H  -0.920500000   2.036450000   1.984040000
| 35> H  -1.242140000   0.921210000   2.984230000
| 36> *
| 37>
| 38>                          ****END OF INPUT****

CARTESIAN COORDINATES (ANGSTROEM)
---------------------------------
  O      0.923410   -1.794470   -2.768350
  H      1.359750   -2.338250   -3.430940
  H      1.303000   -0.879480   -2.865760
  O     -1.752130   -0.741530   -2.896280
  H     -2.036450   -0.920500   -1.984040
  H     -0.921210   -1.242140   -2.984230
  O     -0.885520    1.737840    0.052730
  H     -1.032320    2.090180   -0.841890
  H     -1.284090    0.839590    0.017130
  O      0.885520   -1.737840    0.052730
  H      1.284090   -0.839590    0.017130
  H      1.032320   -2.090180   -0.841890
  O      1.752130    0.741530   -2.896280
  H      2.036450    0.920500   -1.984040
  H      0.921210    1.242140   -2.984230
  O      0.741530   -1.752130    2.896280
  H      0.920500   -2.036450    1.984040
  H      1.242140   -0.921210    2.984230
  O     -0.741530    1.752130    2.896280
  H     -0.920500    2.036450    1.984040
  H     -1.242140    0.921210    2.984230

 Total Charge           Charge          ....    0
 Multiplicity           Mult            ....    1
 Number of Electrons    NEL             ....   70
 Basis Dimension        Dim             ....  301

ORBITAL ENERGIES
----------------

  NO   OCC          E(Eh)            E(eV)
   0   2.0000     -20.631844      -561.4210
   1   2.0000     -20.606263      -560.7249
   2   2.0000     -20.591406      -560.3206
   3   2.0000     -20.576650      -559.9191
   4   2.0000     -20.559668      -559.4570
   5   2.0000     -20.534102      -558.7613
   6   2.0000     -20.527848      -558.5911
   7   2.0000      -1.418120       -38.5890
   8   2.0000      -1.384363       -37.6704
   9   2.0000      -1.378407       -37.5084
  10   2.0000      -1.356969       -36.9250
  11   2.0000      -1.341386       -36.5010
  12   2.0000      -1.315971       -35.8094
  13   2.0000      -1.309611       -35.6363
  14   2.0000      -0.773953       -21.0603
  15   2.0000      -0.759792       -20.6750
  16   2.0000      -0.746617       -20.3165
  17   2.0000      -0.726463       -19.7681
  18   2.0000      -0.710885       -19.3442
  19   2.0000      -0.687345       -18.7036
  20   2.0000      -0.678521       -18.4635
  21   2.0000      -0.660357       -17.9692
  22   2.0000      -0.623703       -16.9718
  23   2.0000      -0.622759       -16.9461
  24   2.0000      -0.603211       -16.4142
  25   2.0000      -0.581987       -15.8367
  26   2.0000      -0.563356       -15.3297
  27   2.0000      -0.559021       -15.2117
  28   2.0000      -0.548595       -14.9280
  29   2.0000      -0.542980       -14.7752
  30   2.0000      -0.534896       -14.5553
  31   2.0000      -0.520247       -14.1566
  32   2.0000      -0.506730       -13.7888
  33   2.0000      -0.481753       -13.1092
  34   2.0000      -0.473119       -12.8742
  35   0.0000       0.058416         1.5896
  36   0.0000       0.110525         3.0075
  37   0.0000       0.121925         3.3178
  38   0.0000       0.129194         3.5155
  39   0.0000       0.158156         4.3037

MULLIKEN ATOMIC CHARGES
-----------------------
   0 O :   -0.753228
   1 H :    0.357812
   2 H :    0.381968
   3 O :   -0.709093
   4 H :    0.327803
   5 H :    0.365535
   6 O :   -0.697854
   7 H :    0.347707
   8 H :    0.349377
   9 O :   -0.708363
  10 H :    0.318796
  11 H :    0.378851
  12 O :   -0.677879
  13 H :    0.359888
  14 H :    0.367687
  15 O :   -0.702325
  16 H :    0.369727
  17 H :    0.326273
  18 O :   -0.699644
  19 H :    0.365512
  20 H :    0.331450
Sum of atomic charges:   -0.0000000

LOEWDIN ATOMIC CHARGES
----------------------
   0 O :   -0.312415
   1 H :    0.162969
   2 H :    0.145569
   3 O :   -0.345339
   4 H :    0.157139
   5 H :    0.147849
   6 O :   -0.316359
   7 H :    0.167225
   8 H :    0.174107
   9 O :   -0.323755
  10 H :    0.159723
  11 H :    0.153029
  12 O :   -0.262688
  13 H :    0.173458
  14 H :    0.178500
  15 O :   -0.341818
  16 H :    0.151307
  17 H :    0.158643
  18 O :   -0.339301
  19 H :    0.150888
  20 H :    0.161268

  Mayer bond orders larger than 0.100000
B(  0-O ,  1-H ) :   0.8363 B(  0-O ,  2-H ) :   0.7504 B(  3-O ,  4-H ) :   0.8567
B(  3-O ,  5-H ) :   0.8096 B(  6-O ,  7-H ) :   0.8416 B(  6-O ,  8-H ) :   0.8323
B(  9-O , 10-H ) :   0.8518 B(  9-O , 11-H ) :   0.8007 B( 12-O , 13-H ) :   0.8349
B( 12-O , 14-H ) :   0.8266 B( 15-O , 16-H ) :   0.8201 B( 15-O , 17-H ) :   0.8557
B( 18-O , 19-H ) :   0.8267 B( 18-O , 20-H ) :   0.8527

MP2 TOTAL ENERGY:     -534.236065203 Eh
FINAL SINGLE POINT ENERGY      -534.236065202746

DIPOLE MOMENT
-------------
                                X             Y             Z
Electronic contribution:      0.13474       0.12135      -0.22346
Nuclear contribution   :      0.67915       0.30898      -2.18115
                        -----------------------------------------
Total Dipole Moment    :      0.81389       0.43033      -2.40461
                        -----------------------------------------
Magnitude (a.u.)       :      2.57483
Magnitude (Debye)      :      6.54469

Rotational constants in cm-1:     0.037967     0.019503     0.016155
Rotational constants in MHz :  1138.216114   584.681387   484.307372

                             ****ORCA TERMINATED NORMALLY****
TOTAL RUN TIME: 0 days 0 hours 2 minutes 13 seconds 771 msec
