                         Program Version 4.2.0 -  RELEASE  -
|  1> # 12meoh.boyd.etal.mol9
|  2> ! MP2 def2-TZVP EnGrad TightSCF
|  3>
|  4> %pal
|  5>     nprocs 6
|  6> end
|  7>
|  8> %maxcore 8000
|  9>
| 10> %scf
| 11>     ConvForced true
| 12> end
| 13>
| 14> *xyz 0 1
| 15> O   1.390610024   3.194080770  -1.536658882
| 16> H   2.162932299   2.881562730  -0.993525056
| 17> C   1.202977189   4.580367182  -1.302880219
| 18> H   0.374773115   4.915764831  -1.934164643
| 19> H   2.098649340   5.157710875  -1.570472348
| 20> H   0.950320401   4.800436015  -0.254328827
| 21> *
| 22>
| 23>                          ****END OF INPUT****

CARTESIAN COORDINATES (ANGSTROEM)
---------------------------------
  O      1.390610    3.194081   -1.536659
  H      2.162932    2.881563   -0.993525
  C      1.202977    4.580367   -1.302880
  H      0.374773    4.915765   -1.934165
  H      2.098649    5.157711   -1.570472
  H      0.950320    4.800436   -0.254329

 Total Charge           Charge          ....    0
 Multiplicity           Mult            ....    1
 Number of Electrons    NEL             ....   18
 Basis Dimension        Dim             ....   86

ORBITAL ENERGIES
----------------

  NO   OCC          E(Eh)            E(eV)
   0   2.0000     -20.557553      -559.3995
   1   2.0000     -11.271514      -306.7135
   2   2.0000      -1.348224       -36.6870
   3   2.0000      -0.919492       -25.0206
   4   2.0000      -0.682836       -18.5809
   5   2.0000      -0.617055       -16.7909
   6   2.0000      -0.592327       -16.1180
   7   2.0000      -0.499284       -13.5862
   8   2.0000      -0.448606       -12.2072
   9   0.0000       0.134948         3.6721
  10   0.0000       0.175624         4.7790
  11   0.0000       0.229787         6.2528
  12   0.0000       0.230628         6.2757
  13   0.0000       0.254960         6.9378

MULLIKEN ATOMIC CHARGES
-----------------------
   0 O :   -0.497042
   1 H :    0.321930
   2 C :   -0.170997
   3 H :    0.129318
   4 H :    0.108597
   5 H :    0.108194
Sum of atomic charges:   -0.0000000

LOEWDIN ATOMIC CHARGES
----------------------
   0 O :   -0.105717
   1 H :    0.190614
   2 C :   -0.385758
   3 H :    0.110584
   4 H :    0.095113
   5 H :    0.095164

  Mayer bond orders larger than 0.100000
B(  0-O ,  1-H ) :   0.8417 B(  0-O ,  2-C ) :   0.9274 B(  2-C ,  3-H ) :   0.9375
B(  2-C ,  4-H ) :   0.9401 B(  2-C ,  5-H ) :   0.9375

MP2 TOTAL ENERGY:     -115.506585271 Eh
FINAL SINGLE POINT ENERGY      -115.506585270898

DIPOLE MOMENT
-------------
                                X             Y             Z
Electronic contribution:      0.11620      -1.75504      -0.38617
Nuclear contribution   :      0.28485       2.12340       0.81256
                        -----------------------------------------
Total Dipole Moment    :      0.40105       0.36837       0.42639
                        -----------------------------------------
Magnitude (a.u.)       :      0.69162
Magnitude (Debye)      :      1.75797

Rotational constants in cm-1:     4.206609     0.825392     0.794139
Rotational constants in MHz : 126110.962460 24744.632256 23807.695933

                             ****ORCA TERMINATED NORMALLY****
TOTAL RUN TIME: 0 days 0 hours 0 minutes 7 seconds 772 msec
