                         Program Version 4.2.0 -  RELEASE  -
|  1> ! MP2 def2-TZVP EnGrad TightSCF FrozenCore
|  2>
|  3> %pal
|  4>     nprocs 12
|  5> end
|  6>
|  7> %maxcore 8000
|  8>
|  9> %scf
| 10>     ConvForced true
| 11> end
| 12>
| 13> *xyz 0 1
| 14> C     0.289174    -2.937174     1.015519
| 15> H     0.691459    -1.953313     1.274406
| 16> H     0.967766    -3.397780     0.292616
| 17> H     0.234507    -3.554710     1.915782
| 18> C    -1.038439    -2.791840     0.425518
| 19> N    -2.092065    -2.669548    -0.049939
| 20> C     1.319710     1.600784     2.746259
| 21> H     0.979649     2.401367     3.408438
| 22> H     1.990454     2.005108     1.982831
| 23> H     1.867766     0.847254     3.315889
| 24> C     0.173604     0.979685     2.088656
| 25> N    -0.753193     0.508552     1.568317
| 26> C    -4.101552    -0.325289     0.904269
| 27> H    -3.236400    -0.427010     1.565126
| 28> H    -4.384368    -1.320502     0.554382
| 29> H    -4.933907     0.134231     1.443776
| 30> C    -3.726962     0.508204    -0.234426
| 31> N    -3.433917     1.181412    -1.135620
| 32> C    -0.788101     3.164612    -0.848125
| 33> H    -0.803631     4.251832    -0.737135
| 34> H    -1.362598     2.700267    -0.041120
| 35> H    -1.271372     2.889297    -1.789414
| 36> C     0.587081     2.673887    -0.812856
| 37> N     1.675753     2.268914    -0.770746
| 38> C    -0.656735    -0.329194    -1.960663
| 39> H    -0.818733     0.057160    -0.949498
| 40> H    -1.524297    -0.937662    -2.227969
| 41> H    -0.568070     0.505644    -2.661529
| 42> C     0.555823    -1.142006    -1.985551
| 43> N     1.511637    -1.803633    -1.997472
| 44> C     4.105358    -0.183166    -0.960372
| 45> H     3.631489     0.681690    -1.432433
| 46> H     4.012135    -1.046086    -1.623732
| 47> H     5.159700     0.033214    -0.769249
| 48> C     3.418732    -0.464006     0.296456
| 49> N     2.883541    -0.685266     1.304135
| 50> *
| 51>
| 52>                          ****END OF INPUT****

CARTESIAN COORDINATES (ANGSTROEM)
---------------------------------
  C      0.289174   -2.937174    1.015519
  H      0.691459   -1.953313    1.274406
  H      0.967766   -3.397780    0.292616
  H      0.234507   -3.554710    1.915782
  C     -1.038439   -2.791840    0.425518
  N     -2.092065   -2.669548   -0.049939
  C      1.319710    1.600784    2.746259
  H      0.979649    2.401367    3.408438
  H      1.990454    2.005108    1.982831
  H      1.867766    0.847254    3.315889
  C      0.173604    0.979685    2.088656
  N     -0.753193    0.508552    1.568317
  C     -4.101552   -0.325289    0.904269
  H     -3.236400   -0.427010    1.565126
  H     -4.384368   -1.320502    0.554382
  H     -4.933907    0.134231    1.443776
  C     -3.726962    0.508204   -0.234426
  N     -3.433917    1.181412   -1.135620
  C     -0.788101    3.164612   -0.848125
  H     -0.803631    4.251832   -0.737135
  H     -1.362598    2.700267   -0.041120
  H     -1.271372    2.889297   -1.789414
  C      0.587081    2.673887   -0.812856
  N      1.675753    2.268914   -0.770746
  C     -0.656735   -0.329194   -1.960663
  H     -0.818733    0.057160   -0.949498
  H     -1.524297   -0.937662   -2.227969
  H     -0.568070    0.505644   -2.661529
  C      0.555823   -1.142006   -1.985551
  N      1.511637   -1.803633   -1.997472
  C      4.105358   -0.183166   -0.960372
  H      3.631489    0.681690   -1.432433
  H      4.012135   -1.046086   -1.623732
  H      5.159700    0.033214   -0.769249
  C      3.418732   -0.464006    0.296456
  N      2.883541   -0.685266    1.304135

 Total Charge           Charge          ....    0
 Multiplicity           Mult            ....    1
 Number of Electrons    NEL             ....  132
 Basis Dimension        Dim             ....  666

ORBITAL ENERGIES
----------------

  NO   OCC          E(Eh)            E(eV)
   0   2.0000     -15.576794      -423.8661
   1   2.0000     -15.574840      -423.8129
   2   2.0000     -15.561919      -423.4613
   3   2.0000     -15.560440      -423.4211
   4   2.0000     -15.558739      -423.3748
   5   2.0000     -15.558626      -423.3717
   6   2.0000     -11.290863      -307.2400
   7   2.0000     -11.289207      -307.1949
   8   2.0000     -11.276720      -306.8551
   9   2.0000     -11.275991      -306.8353
  10   2.0000     -11.273556      -306.7691
  11   2.0000     -11.273106      -306.7568
  12   2.0000     -11.272003      -306.7268
  13   2.0000     -11.271678      -306.7179
  14   2.0000     -11.260184      -306.4052
  15   2.0000     -11.259065      -306.3747
  16   2.0000     -11.255015      -306.2645
  17   2.0000     -11.254054      -306.2384
  18   2.0000      -1.226818       -33.3834
  19   2.0000      -1.223607       -33.2960
  20   2.0000      -1.211067       -32.9548
  21   2.0000      -1.210831       -32.9484
  22   2.0000      -1.208428       -32.8830
  23   2.0000      -1.206030       -32.8177
  24   2.0000      -1.033769       -28.1303
  25   2.0000      -1.032737       -28.1022
  26   2.0000      -1.019951       -27.7543
  27   2.0000      -1.019553       -27.7434
  28   2.0000      -1.015129       -27.6231
  29   2.0000      -1.014033       -27.5932
  30   2.0000      -0.695774       -18.9330
  31   2.0000      -0.692808       -18.8523
  32   2.0000      -0.681727       -18.5507
  33   2.0000      -0.679509       -18.4904
  34   2.0000      -0.676574       -18.4105
  35   2.0000      -0.674446       -18.3526
  36   2.0000      -0.629507       -17.1297
  37   2.0000      -0.627182       -17.0665
  38   2.0000      -0.625490       -17.0205
  39   2.0000      -0.618545       -16.8315
  40   2.0000      -0.613770       -16.7015
  41   2.0000      -0.612698       -16.6724
  42   2.0000      -0.610293       -16.6069
  43   2.0000      -0.608325       -16.5534
  44   2.0000      -0.607397       -16.5281
  45   2.0000      -0.600197       -16.3322
  46   2.0000      -0.596004       -16.2181
  47   2.0000      -0.595588       -16.2068
  48   2.0000      -0.562136       -15.2965
  49   2.0000      -0.561376       -15.2758
  50   2.0000      -0.552320       -15.0294
  51   2.0000      -0.551247       -15.0002
  52   2.0000      -0.547510       -14.8985
  53   2.0000      -0.544904       -14.8276
  54   2.0000      -0.473310       -12.8794
  55   2.0000      -0.468705       -12.7541
  56   2.0000      -0.466571       -12.6960
  57   2.0000      -0.464267       -12.6334
  58   2.0000      -0.459382       -12.5004
  59   2.0000      -0.455083       -12.3834
  60   2.0000      -0.452128       -12.3030
  61   2.0000      -0.450745       -12.2654
  62   2.0000      -0.449518       -12.2320
  63   2.0000      -0.447459       -12.1760
  64   2.0000      -0.446081       -12.1385
  65   2.0000      -0.441901       -12.0247
  66   0.0000       0.122201         3.3253
  67   0.0000       0.148990         4.0542
  68   0.0000       0.149084         4.0568
  69   0.0000       0.150562         4.0970
  70   0.0000       0.154330         4.1995

MULLIKEN ATOMIC CHARGES
-----------------------
   0 C :   -0.286091
   1 H :    0.190188
   2 H :    0.184103
   3 H :    0.165899
   4 C :   -0.098851
   5 N :   -0.157240
   6 C :   -0.275371
   7 H :    0.170067
   8 H :    0.189125
   9 H :    0.186862
  10 C :   -0.059681
  11 N :   -0.205509
  12 C :   -0.267382
  13 H :    0.183795
  14 H :    0.183886
  15 H :    0.165948
  16 C :   -0.105410
  17 N :   -0.160163
  18 C :   -0.282188
  19 H :    0.174629
  20 H :    0.187988
  21 H :    0.185693
  22 C :   -0.109818
  23 N :   -0.156752
  24 C :   -0.307098
  25 H :    0.179898
  26 H :    0.196252
  27 H :    0.163538
  28 C :   -0.083748
  29 N :   -0.154669
  30 C :   -0.291123
  31 H :    0.191028
  32 H :    0.190143
  33 H :    0.162863
  34 C :   -0.051339
  35 N :   -0.199470
Sum of atomic charges:   -0.0000000

LOEWDIN ATOMIC CHARGES
----------------------
   0 C :   -0.282501
   1 H :    0.153703
   2 H :    0.155673
   3 H :    0.147659
   4 C :   -0.204888
   5 N :    0.031530
   6 C :   -0.283433
   7 H :    0.146706
   8 H :    0.155940
   9 H :    0.155846
  10 C :   -0.198181
  11 N :    0.029509
  12 C :   -0.286745
  13 H :    0.152442
  14 H :    0.154279
  15 H :    0.145462
  16 C :   -0.203254
  17 N :    0.025541
  18 C :   -0.282861
  19 H :    0.149066
  20 H :    0.155618
  21 H :    0.154963
  22 C :   -0.208505
  23 N :    0.036835
  24 C :   -0.286303
  25 H :    0.153437
  26 H :    0.157086
  27 H :    0.147547
  28 C :   -0.199320
  29 N :    0.031714
  30 C :   -0.285987
  31 H :    0.153107
  32 H :    0.154077
  33 H :    0.145754
  34 C :   -0.195933
  35 N :    0.024420

  Mayer bond orders larger than 0.100000
B(  0-C ,  1-H ) :   0.9085 B(  0-C ,  2-H ) :   0.9129 B(  0-C ,  3-H ) :   0.9129
B(  0-C ,  4-C ) :   0.8948 B(  4-C ,  5-N ) :   2.7569 B(  6-C ,  7-H ) :   0.9104
B(  6-C ,  8-H ) :   0.9127 B(  6-C ,  9-H ) :   0.9128 B(  6-C , 10-C ) :   0.8886
B( 10-C , 11-N ) :   2.6742 B( 12-C , 13-H ) :   0.9111 B( 12-C , 14-H ) :   0.9115
B( 12-C , 15-H ) :   0.9082 B( 12-C , 16-C ) :   0.9035 B( 16-C , 17-N ) :   2.7720
B( 18-C , 19-H ) :   0.9121 B( 18-C , 20-H ) :   0.9123 B( 18-C , 21-H ) :   0.9108
B( 18-C , 22-C ) :   0.8913 B( 22-C , 23-N ) :   2.7326 B( 24-C , 25-H ) :   0.9053
B( 24-C , 26-H ) :   0.9019 B( 24-C , 27-H ) :   0.9112 B( 24-C , 28-C ) :   0.9218
B( 28-C , 29-N ) :   2.7606 B( 30-C , 31-H ) :   0.9116 B( 30-C , 32-H ) :   0.9111
B( 30-C , 33-H ) :   0.9113 B( 30-C , 34-C ) :   0.8943 B( 34-C , 35-N ) :   2.7206

MP2 TOTAL ENERGY:     -794.954071860 Eh
FINAL SINGLE POINT ENERGY      -794.954071859741

DIPOLE MOMENT
-------------
                                X             Y             Z
Electronic contribution:     -0.34088      -2.62600      -2.36247
Nuclear contribution   :      0.63439       3.88786       3.53748
                        -----------------------------------------
Total Dipole Moment    :      0.29351       1.26186       1.17500
                        -----------------------------------------
Magnitude (a.u.)       :      1.74902
Magnitude (Debye)      :      4.44565

Rotational constants in cm-1:     0.013122     0.009324     0.007979
Rotational constants in MHz :   393.402617   279.537224   239.207398

                             ****ORCA TERMINATED NORMALLY****
TOTAL RUN TIME: 0 days 1 hours 4 minutes 0 seconds 865 msec
