                         Program Version 4.2.0 -  RELEASE  -
|  1> # 12h2o.su.etal.mol1,3,4,6,8,9,10
|  2> ! MP2 def2-TZVP EnGrad TightSCF
|  3>
|  4> %pal
|  5>     nprocs 6
|  6> end
|  7>
|  8> %maxcore 8000
|  9>
| 10> %scf
| 11>     ConvForced true
| 12> end
| 13>
| 14> *xyz 0 1
| 15> O  -1.794470000  -0.923410000   2.768350000
| 16> H  -2.338250000  -1.359750000   3.430940000
| 17> H  -0.879480000  -1.303000000   2.865760000
| 18> O  -1.752130000  -0.741530000  -2.896280000
| 19> H  -2.036450000  -0.920500000  -1.984040000
| 20> H  -0.921210000  -1.242140000  -2.984230000
| 21> O  -0.885520000   1.737840000   0.052730000
| 22> H  -1.032320000   2.090180000  -0.841890000
| 23> H  -1.284090000   0.839590000   0.017130000
| 24> O   1.737840000   0.885520000  -0.052730000
| 25> H   2.090180000   1.032320000   0.841890000
| 26> H   0.839590000   1.284090000  -0.017130000
| 27> O   1.752130000   0.741530000  -2.896280000
| 28> H   2.036450000   0.920500000  -1.984040000
| 29> H   0.921210000   1.242140000  -2.984230000
| 30> O   0.741530000  -1.752130000   2.896280000
| 31> H   0.920500000  -2.036450000   1.984040000
| 32> H   1.242140000  -0.921210000   2.984230000
| 33> O  -0.923410000   1.794470000  -2.768350000
| 34> H  -1.359750000   2.338250000  -3.430940000
| 35> H  -1.303000000   0.879480000  -2.865760000
| 36> *
| 37>
| 38>                          ****END OF INPUT****

CARTESIAN COORDINATES (ANGSTROEM)
---------------------------------
  O     -1.794470   -0.923410    2.768350
  H     -2.338250   -1.359750    3.430940
  H     -0.879480   -1.303000    2.865760
  O     -1.752130   -0.741530   -2.896280
  H     -2.036450   -0.920500   -1.984040
  H     -0.921210   -1.242140   -2.984230
  O     -0.885520    1.737840    0.052730
  H     -1.032320    2.090180   -0.841890
  H     -1.284090    0.839590    0.017130
  O      1.737840    0.885520   -0.052730
  H      2.090180    1.032320    0.841890
  H      0.839590    1.284090   -0.017130
  O      1.752130    0.741530   -2.896280
  H      2.036450    0.920500   -1.984040
  H      0.921210    1.242140   -2.984230
  O      0.741530   -1.752130    2.896280
  H      0.920500   -2.036450    1.984040
  H      1.242140   -0.921210    2.984230
  O     -0.923410    1.794470   -2.768350
  H     -1.359750    2.338250   -3.430940
  H     -1.303000    0.879480   -2.865760

 Total Charge           Charge          ....    0
 Multiplicity           Mult            ....    1
 Number of Electrons    NEL             ....   70
 Basis Dimension        Dim             ....  301

ORBITAL ENERGIES
----------------

  NO   OCC          E(Eh)            E(eV)
   0   2.0000     -20.614685      -560.9541
   1   2.0000     -20.604219      -560.6693
   2   2.0000     -20.573931      -559.8451
   3   2.0000     -20.569929      -559.7362
   4   2.0000     -20.552093      -559.2509
   5   2.0000     -20.529794      -558.6441
   6   2.0000     -20.505310      -557.9778
   7   2.0000      -1.401012       -38.1235
   8   2.0000      -1.389484       -37.8098
   9   2.0000      -1.363344       -37.0985
  10   2.0000      -1.352059       -36.7914
  11   2.0000      -1.333190       -36.2779
  12   2.0000      -1.311976       -35.7007
  13   2.0000      -1.290263       -35.1098
  14   2.0000      -0.756734       -20.5918
  15   2.0000      -0.747013       -20.3273
  16   2.0000      -0.742266       -20.1981
  17   2.0000      -0.716302       -19.4916
  18   2.0000      -0.707173       -19.2432
  19   2.0000      -0.702057       -19.1039
  20   2.0000      -0.669126       -18.2078
  21   2.0000      -0.643810       -17.5189
  22   2.0000      -0.625236       -17.0135
  23   2.0000      -0.612777       -16.6745
  24   2.0000      -0.589800       -16.0493
  25   2.0000      -0.582783       -15.8583
  26   2.0000      -0.567604       -15.4453
  27   2.0000      -0.549829       -14.9616
  28   2.0000      -0.532587       -14.4924
  29   2.0000      -0.524306       -14.2671
  30   2.0000      -0.512319       -13.9409
  31   2.0000      -0.510718       -13.8973
  32   2.0000      -0.498208       -13.5569
  33   2.0000      -0.480230       -13.0677
  34   2.0000      -0.455343       -12.3905
  35   0.0000       0.078781         2.1437
  36   0.0000       0.102141         2.7794
  37   0.0000       0.141949         3.8626
  38   0.0000       0.155310         4.2262
  39   0.0000       0.164018         4.4632

MULLIKEN ATOMIC CHARGES
-----------------------
   0 O :   -0.734895
   1 H :    0.328685
   2 H :    0.364803
   3 O :   -0.683967
   4 H :    0.356383
   5 H :    0.377573
   6 O :   -0.689900
   7 H :    0.379674
   8 H :    0.336936
   9 O :   -0.727725
  10 H :    0.325474
  11 H :    0.362005
  12 O :   -0.734224
  13 H :    0.369135
  14 H :    0.344537
  15 O :   -0.676376
  16 H :    0.361103
  17 H :    0.356732
  18 O :   -0.750536
  19 H :    0.353495
  20 H :    0.381087
Sum of atomic charges:    0.0000000

LOEWDIN ATOMIC CHARGES
----------------------
   0 O :   -0.373612
   1 H :    0.150615
   2 H :    0.141547
   3 O :   -0.266033
   4 H :    0.172410
   5 H :    0.183716
   6 O :   -0.293494
   7 H :    0.152475
   8 H :    0.167977
   9 O :   -0.343048
  10 H :    0.155894
  11 H :    0.144946
  12 O :   -0.358385
  13 H :    0.150801
  14 H :    0.138934
  15 O :   -0.268911
  16 H :    0.175428
  17 H :    0.174847
  18 O :   -0.312536
  19 H :    0.160709
  20 H :    0.145720

  Mayer bond orders larger than 0.100000
B(  0-O ,  1-H ) :   0.8585 B(  0-O ,  2-H ) :   0.7857 B(  3-O ,  4-H ) :   0.8376
B(  3-O ,  5-H ) :   0.8198 B(  6-O ,  7-H ) :   0.7977 B(  6-O ,  8-H ) :   0.8425
B(  6-O , 11-H ) :   0.1022 B(  9-O , 10-H ) :   0.8555 B(  9-O , 11-H ) :   0.7679
B( 12-O , 13-H ) :   0.8211 B( 12-O , 14-H ) :   0.8290 B( 15-O , 16-H ) :   0.8341
B( 15-O , 17-H ) :   0.8365 B( 18-O , 19-H ) :   0.8388 B( 18-O , 20-H ) :   0.7510

MP2 TOTAL ENERGY:     -534.244556539 Eh
FINAL SINGLE POINT ENERGY      -534.244556538867

DIPOLE MOMENT
-------------
                                X             Y             Z
Electronic contribution:     -0.08494      -0.14085      -0.18571
Nuclear contribution   :     -0.71285      -0.53361       0.68611
                        -----------------------------------------
Total Dipole Moment    :     -0.79779      -0.67446       0.50039
                        -----------------------------------------
Magnitude (a.u.)       :      1.15834
Magnitude (Debye)      :      2.94428

Rotational constants in cm-1:     0.043071     0.018390     0.016022
Rotational constants in MHz :  1291.240935   551.326028   480.322808

                             ****ORCA TERMINATED NORMALLY****
TOTAL RUN TIME: 0 days 0 hours 1 minutes 42 seconds 452 msec
