                         Program Version 4.2.0 -  RELEASE  -
|  1> # 12meoh.boyd.etal.mol1,4,5
|  2> ! MP2 def2-TZVP EnGrad TightSCF
|  3>
|  4> %pal
|  5>     nprocs 6
|  6> end
|  7>
|  8> %maxcore 8000
|  9>
| 10> %scf
| 11>     ConvForced true
| 12> end
| 13>
| 14> *xyz 0 1
| 15> O   0.666045193  -2.600503172   0.138317521
| 16> H  -0.227115049  -2.712051982  -0.281868004
| 17> C   0.490021232  -1.851247678   1.341189459
| 18> H   1.466500502  -1.466176022   1.645844415
| 19> H   0.097564527  -2.488364683   2.146902740
| 20> H  -0.187588112  -1.000787499   1.200739571
| 21> O  -1.358578914   1.232360421   1.189721000
| 22> H  -1.058250183   1.216459361   0.238591307
| 23> C  -0.389763452   1.957872567   1.943072362
| 24> H  -0.747220771   2.012806578   2.975200343
| 25> H  -0.260410585   2.982763209   1.565366540
| 26> H   0.585220638   1.453754179   1.934070793
| 27> O  -0.662721750   1.449094618  -1.383082065
| 28> H   0.064188300   2.119867608  -1.465650660
| 29> C  -0.353319239   0.341218776  -2.229326771
| 30> H  -1.072358530  -0.454743281  -2.019906495
| 31> H   0.657636746  -0.044472139  -2.042736771
| 32> H  -0.434616607   0.624733901  -3.287793021
| 33> *
| 34>
| 35>                          ****END OF INPUT****

CARTESIAN COORDINATES (ANGSTROEM)
---------------------------------
  O      0.666045   -2.600503    0.138318
  H     -0.227115   -2.712052   -0.281868
  C      0.490021   -1.851248    1.341189
  H      1.466501   -1.466176    1.645844
  H      0.097565   -2.488365    2.146903
  H     -0.187588   -1.000787    1.200740
  O     -1.358579    1.232360    1.189721
  H     -1.058250    1.216459    0.238591
  C     -0.389763    1.957873    1.943072
  H     -0.747221    2.012807    2.975200
  H     -0.260411    2.982763    1.565367
  H      0.585221    1.453754    1.934071
  O     -0.662722    1.449095   -1.383082
  H      0.064188    2.119868   -1.465651
  C     -0.353319    0.341219   -2.229327
  H     -1.072359   -0.454743   -2.019906
  H      0.657637   -0.044472   -2.042737
  H     -0.434617    0.624734   -3.287793

 Total Charge           Charge          ....    0
 Multiplicity           Mult            ....    1
 Number of Electrons    NEL             ....   54
 Basis Dimension        Dim             ....  258

ORBITAL ENERGIES
----------------

  NO   OCC          E(Eh)            E(eV)
   0   2.0000     -20.593109      -560.3670
   1   2.0000     -20.553413      -559.2868
   2   2.0000     -20.521827      -558.4273
   3   2.0000     -11.292792      -307.2925
   4   2.0000     -11.260363      -306.4101
   5   2.0000     -11.258099      -306.3485
   6   2.0000      -1.385625       -37.7048
   7   2.0000      -1.341170       -36.4951
   8   2.0000      -1.317684       -35.8560
   9   2.0000      -0.945458       -25.7272
  10   2.0000      -0.911395       -24.8003
  11   2.0000      -0.904285       -24.6069
  12   2.0000      -0.717851       -19.5337
  13   2.0000      -0.680127       -18.5072
  14   2.0000      -0.674690       -18.3592
  15   2.0000      -0.638341       -17.3702
  16   2.0000      -0.614274       -16.7152
  17   2.0000      -0.612167       -16.6579
  18   2.0000      -0.596227       -16.2242
  19   2.0000      -0.584312       -15.8999
  20   2.0000      -0.569039       -15.4843
  21   2.0000      -0.532079       -14.4786
  22   2.0000      -0.494308       -13.4508
  23   2.0000      -0.491407       -13.3719
  24   2.0000      -0.463758       -12.6195
  25   2.0000      -0.443678       -12.0731
  26   2.0000      -0.423554       -11.5255
  27   0.0000       0.110333         3.0023
  28   0.0000       0.129931         3.5356
  29   0.0000       0.163176         4.4403
  30   0.0000       0.182911         4.9773
  31   0.0000       0.191049         5.1987

MULLIKEN ATOMIC CHARGES
-----------------------
   0 O :   -0.506812
   1 H :    0.319706
   2 C :   -0.183566
   3 H :    0.117525
   4 H :    0.112718
   5 H :    0.126613
   6 O :   -0.523168
   7 H :    0.360881
   8 C :   -0.187889
   9 H :    0.126917
  10 H :    0.103118
  11 H :    0.097833
  12 O :   -0.520589
  13 H :    0.342556
  14 C :   -0.188600
  15 H :    0.130753
  16 H :    0.143347
  17 H :    0.128656
Sum of atomic charges:   -0.0000000

LOEWDIN ATOMIC CHARGES
----------------------
   0 O :   -0.114545
   1 H :    0.186834
   2 C :   -0.382665
   3 H :    0.106214
   4 H :    0.097349
   5 H :    0.101559
   6 O :   -0.120545
   7 H :    0.158098
   8 C :   -0.399306
   9 H :    0.108098
  10 H :    0.092171
  11 H :    0.089070
  12 O :   -0.074672
  13 H :    0.198127
  14 C :   -0.368188
  15 H :    0.112127
  16 H :    0.105514
  17 H :    0.104760

  Mayer bond orders larger than 0.100000
B(  0-O ,  1-H ) :   0.8444 B(  0-O ,  2-C ) :   0.9034 B(  2-C ,  3-H ) :   0.9369
B(  2-C ,  4-H ) :   0.9393 B(  2-C ,  5-H ) :   0.9296 B(  6-O ,  7-H ) :   0.7791
B(  6-O ,  8-C ) :   0.9333 B(  8-C ,  9-H ) :   0.9428 B(  8-C , 10-H ) :   0.9398
B(  8-C , 11-H ) :   0.9351 B( 12-O , 13-H ) :   0.8280 B( 12-O , 14-C ) :   0.8662
B( 14-C , 15-H ) :   0.9416 B( 14-C , 16-H ) :   0.9358 B( 14-C , 17-H ) :   0.9325

MP2 TOTAL ENERGY:     -346.532001383 Eh
FINAL SINGLE POINT ENERGY      -346.532001382748

DIPOLE MOMENT
-------------
                                X             Y             Z
Electronic contribution:     -1.45962      -0.55765      -1.59377
Nuclear contribution   :      1.97169       1.05558       0.75118
                        -----------------------------------------
Total Dipole Moment    :      0.51207       0.49793      -0.84258
                        -----------------------------------------
Magnitude (a.u.)       :      1.10458
Magnitude (Debye)      :      2.80762

Rotational constants in cm-1:     0.070125     0.049246     0.030788
Rotational constants in MHz :  2102.285197  1476.368675   923.003636

                             ****ORCA TERMINATED NORMALLY****
TOTAL RUN TIME: 0 days 0 hours 1 minutes 51 seconds 644 msec
