                         Program Version 4.2.0 -  RELEASE  -
|  1> # 12h2o.su.etal.mol2,5,6,7,9
|  2> ! MP2 def2-TZVP EnGrad TightSCF
|  3>
|  4> %pal
|  5>     nprocs 6
|  6> end
|  7>
|  8> %maxcore 8000
|  9>
| 10> %scf
| 11>     ConvForced true
| 12> end
| 13>
| 14> *xyz 0 1
| 15> O   0.923410000  -1.794470000  -2.768350000
| 16> H   1.359750000  -2.338250000  -3.430940000
| 17> H   1.303000000  -0.879480000  -2.865760000
| 18> O   0.885520000  -1.737840000   0.052730000
| 19> H   1.284090000  -0.839590000   0.017130000
| 20> H   1.032320000  -2.090180000  -0.841890000
| 21> O   1.737840000   0.885520000  -0.052730000
| 22> H   2.090180000   1.032320000   0.841890000
| 23> H   0.839590000   1.284090000  -0.017130000
| 24> O  -1.737840000  -0.885520000  -0.052730000
| 25> H  -2.090180000  -1.032320000   0.841890000
| 26> H  -0.839590000  -1.284090000  -0.017130000
| 27> O   0.741530000  -1.752130000   2.896280000
| 28> H   0.920500000  -2.036450000   1.984040000
| 29> H   1.242140000  -0.921210000   2.984230000
| 30> *
| 31>
| 32>                          ****END OF INPUT****

CARTESIAN COORDINATES (ANGSTROEM)
---------------------------------
  O      0.923410   -1.794470   -2.768350
  H      1.359750   -2.338250   -3.430940
  H      1.303000   -0.879480   -2.865760
  O      0.885520   -1.737840    0.052730
  H      1.284090   -0.839590    0.017130
  H      1.032320   -2.090180   -0.841890
  O      1.737840    0.885520   -0.052730
  H      2.090180    1.032320    0.841890
  H      0.839590    1.284090   -0.017130
  O     -1.737840   -0.885520   -0.052730
  H     -2.090180   -1.032320    0.841890
  H     -0.839590   -1.284090   -0.017130
  O      0.741530   -1.752130    2.896280
  H      0.920500   -2.036450    1.984040
  H      1.242140   -0.921210    2.984230

 Total Charge           Charge          ....    0
 Multiplicity           Mult            ....    1
 Number of Electrons    NEL             ....   50
 Basis Dimension        Dim             ....  215

ORBITAL ENERGIES
----------------

  NO   OCC          E(Eh)            E(eV)
   0   2.0000     -20.613198      -560.9136
   1   2.0000     -20.591834      -560.3323
   2   2.0000     -20.555557      -559.3451
   3   2.0000     -20.538603      -558.8838
   4   2.0000     -20.515947      -558.2673
   5   2.0000      -1.394271       -37.9400
   6   2.0000      -1.370247       -37.2863
   7   2.0000      -1.346460       -36.6390
   8   2.0000      -1.319857       -35.9151
   9   2.0000      -1.296631       -35.2831
  10   2.0000      -0.751410       -20.4469
  11   2.0000      -0.736931       -20.0529
  12   2.0000      -0.721445       -19.6315
  13   2.0000      -0.689370       -18.7587
  14   2.0000      -0.671451       -18.2711
  15   2.0000      -0.637968       -17.3600
  16   2.0000      -0.614670       -16.7260
  17   2.0000      -0.591068       -16.0838
  18   2.0000      -0.559971       -15.2376
  19   2.0000      -0.552691       -15.0395
  20   2.0000      -0.540777       -14.7153
  21   2.0000      -0.527008       -14.3406
  22   2.0000      -0.496192       -13.5021
  23   2.0000      -0.484698       -13.1893
  24   2.0000      -0.464419       -12.6375
  25   0.0000       0.083888         2.2827
  26   0.0000       0.115389         3.1399
  27   0.0000       0.158312         4.3079
  28   0.0000       0.173261         4.7147
  29   0.0000       0.191738         5.2174

MULLIKEN ATOMIC CHARGES
-----------------------
   0 O :   -0.692325
   1 H :    0.351917
   2 H :    0.358857
   3 O :   -0.746455
   4 H :    0.346835
   5 H :    0.383647
   6 O :   -0.689541
   7 H :    0.355651
   8 H :    0.373599
   9 O :   -0.727185
  10 H :    0.329401
  11 H :    0.363274
  12 O :   -0.689273
  13 H :    0.375410
  14 H :    0.306188
Sum of atomic charges:   -0.0000000

LOEWDIN ATOMIC CHARGES
----------------------
   0 O :   -0.307783
   1 H :    0.163712
   2 H :    0.187124
   3 O :   -0.301474
   4 H :    0.138400
   5 H :    0.153765
   6 O :   -0.289915
   7 H :    0.171701
   8 H :    0.186058
   9 O :   -0.365636
  10 H :    0.157940
  11 H :    0.140426
  12 O :   -0.337891
  13 H :    0.152005
  14 H :    0.151567

  Mayer bond orders larger than 0.100000
B(  0-O ,  1-H ) :   0.8422 B(  0-O ,  2-H ) :   0.8318 B(  3-O ,  4-H ) :   0.7825
B(  3-O ,  5-H ) :   0.7989 B(  6-O ,  7-H ) :   0.8385 B(  6-O ,  8-H ) :   0.8212
B(  9-O , 10-H ) :   0.8562 B(  9-O , 11-H ) :   0.7939 B( 12-O , 13-H ) :   0.8126
B( 12-O , 14-H ) :   0.8693

MP2 TOTAL ENERGY:     -381.597866607 Eh
FINAL SINGLE POINT ENERGY      -381.597866607112

DIPOLE MOMENT
-------------
                                X             Y             Z
Electronic contribution:      0.01202      -0.09438      -0.33292
Nuclear contribution   :      1.69875       1.21834      -0.54442
                        -----------------------------------------
Total Dipole Moment    :      1.71077       1.12396      -0.87734
                        -----------------------------------------
Magnitude (a.u.)       :      2.22705
Magnitude (Debye)      :      5.66071

Rotational constants in cm-1:     0.075654     0.044651     0.039127
Rotational constants in MHz :  2268.045220  1338.605174  1172.997093

                             ****ORCA TERMINATED NORMALLY****
TOTAL RUN TIME: 0 days 0 hours 0 minutes 37 seconds 829 msec
