                         Program Version 4.2.0 -  RELEASE  -
|  1> # 12h2o.su.etal.mol6,7,8,11
|  2> ! MP2 def2-TZVP EnGrad TightSCF
|  3>
|  4> %pal
|  5>     nprocs 6
|  6> end
|  7>
|  8> %maxcore 8000
|  9>
| 10> %scf
| 11>     ConvForced true
| 12> end
| 13>
| 14> *xyz 0 1
| 15> O   1.737840000   0.885520000  -0.052730000
| 16> H   2.090180000   1.032320000   0.841890000
| 17> H   0.839590000   1.284090000  -0.017130000
| 18> O  -1.737840000  -0.885520000  -0.052730000
| 19> H  -2.090180000  -1.032320000   0.841890000
| 20> H  -0.839590000  -1.284090000  -0.017130000
| 21> O   1.752130000   0.741530000  -2.896280000
| 22> H   2.036450000   0.920500000  -1.984040000
| 23> H   0.921210000   1.242140000  -2.984230000
| 24> O  -0.741530000   1.752130000   2.896280000
| 25> H  -0.920500000   2.036450000   1.984040000
| 26> H  -1.242140000   0.921210000   2.984230000
| 27> *
| 28>
| 29>                          ****END OF INPUT****

CARTESIAN COORDINATES (ANGSTROEM)
---------------------------------
  O      1.737840    0.885520   -0.052730
  H      2.090180    1.032320    0.841890
  H      0.839590    1.284090   -0.017130
  O     -1.737840   -0.885520   -0.052730
  H     -2.090180   -1.032320    0.841890
  H     -0.839590   -1.284090   -0.017130
  O      1.752130    0.741530   -2.896280
  H      2.036450    0.920500   -1.984040
  H      0.921210    1.242140   -2.984230
  O     -0.741530    1.752130    2.896280
  H     -0.920500    2.036450    1.984040
  H     -1.242140    0.921210    2.984230

 Total Charge           Charge          ....    0
 Multiplicity           Mult            ....    1
 Number of Electrons    NEL             ....   40
 Basis Dimension        Dim             ....  172

ORBITAL ENERGIES
----------------

  NO   OCC          E(Eh)            E(eV)
   0   2.0000     -20.593939      -560.3896
   1   2.0000     -20.586521      -560.1877
   2   2.0000     -20.582816      -560.0869
   3   2.0000     -20.532250      -558.7109
   4   2.0000      -1.372168       -37.3386
   5   2.0000      -1.365402       -37.1545
   6   2.0000      -1.358554       -36.9681
   7   2.0000      -1.314101       -35.7585
   8   2.0000      -0.734810       -19.9952
   9   2.0000      -0.728231       -19.8162
  10   2.0000      -0.720111       -19.5952
  11   2.0000      -0.684116       -18.6157
  12   2.0000      -0.612652       -16.6711
  13   2.0000      -0.602636       -16.3986
  14   2.0000      -0.597461       -16.2577
  15   2.0000      -0.552722       -15.0403
  16   2.0000      -0.535015       -14.5585
  17   2.0000      -0.529660       -14.4128
  18   2.0000      -0.524725       -14.2785
  19   2.0000      -0.478552       -13.0221
  20   0.0000       0.070727         1.9246
  21   0.0000       0.119057         3.2397
  22   0.0000       0.143791         3.9128
  23   0.0000       0.161508         4.3949
  24   0.0000       0.177796         4.8381

MULLIKEN ATOMIC CHARGES
-----------------------
   0 O :   -0.692482
   1 H :    0.356865
   2 H :    0.336808
   3 O :   -0.678645
   4 H :    0.328803
   5 H :    0.351569
   6 O :   -0.692234
   7 H :    0.368805
   8 H :    0.319118
   9 O :   -0.666966
  10 H :    0.333513
  11 H :    0.334847
Sum of atomic charges:    0.0000000

LOEWDIN ATOMIC CHARGES
----------------------
   0 O :   -0.315538
   1 H :    0.172867
   2 H :    0.168672
   3 O :   -0.334997
   4 H :    0.160365
   5 H :    0.176422
   6 O :   -0.338819
   7 H :    0.152387
   8 H :    0.157940
   9 O :   -0.325698
  10 H :    0.161341
  11 H :    0.165057

  Mayer bond orders larger than 0.100000
B(  0-O ,  1-H ) :   0.8373 B(  0-O ,  2-H ) :   0.8413 B(  3-O ,  4-H ) :   0.8560
B(  3-O ,  5-H ) :   0.8391 B(  6-O ,  7-H ) :   0.8232 B(  6-O ,  8-H ) :   0.8632
B(  9-O , 10-H ) :   0.8534 B(  9-O , 11-H ) :   0.8530

MP2 TOTAL ENERGY:     -305.260284589 Eh
FINAL SINGLE POINT ENERGY      -305.260284589437

DIPOLE MOMENT
-------------
                                X             Y             Z
Electronic contribution:      0.19686      -0.05523      -0.07647
Nuclear contribution   :     -1.02062       0.11069       1.54856
                        -----------------------------------------
Total Dipole Moment    :     -0.82376       0.05545       1.47208
                        -----------------------------------------
Magnitude (a.u.)       :      1.68781
Magnitude (Debye)      :      4.29006

Rotational constants in cm-1:     0.108210     0.043299     0.032514
Rotational constants in MHz :  3244.043772  1298.063741   974.740282

                             ****ORCA TERMINATED NORMALLY****
TOTAL RUN TIME: 0 days 0 hours 0 minutes 19 seconds 813 msec
