                         Program Version 3.0.3 - RELEASE   -
|  1> ! B3LYP Def2-SVP def2-SVP/J RIJCOSX TightSCF Grid4 D3BJ COSMO OPT
|  2>
|  3> %pal nprocs 12 end
|  4>
|  5> %scf
|  6>         maxiter 800
|  7> end
|  8>
|  9> %cosmo
| 10>         SMD true
| 11>         solvent "WATER"
| 12> end
| 13>
| 14> * xyz  0  1
| 15>   O      2.136582    1.519458    0.230719
| 16>   H      1.426995    1.353770    0.851417
| 17>   H      2.689775    2.167996    0.666160
| 18>   O      0.146258    0.992856    1.935357
| 19>   H     -0.655145    1.231255    1.469362
| 20>   H      0.065310    0.051006    2.085685
| 21>   O     -0.095343   -1.746018    1.748850
| 22>   H      0.598880   -1.804849    1.092478
| 23>   H     -0.079827   -2.594679    2.191305
| 24>   O     -1.964583    1.450743    0.265233
| 25>   H     -2.119255    0.525575    0.074517
| 26>   H     -2.840189    1.827121    0.354031
| 27>   O      1.817159   -1.545651   -0.143354
| 28>   H      2.205582   -0.682716    0.000530
| 29>   H      1.359880   -1.466436   -0.980524
| 30>   O      0.076357    1.581477   -1.652138
| 31>   H      0.832883    1.662848   -1.071380
| 32>   H     -0.678628    1.746365   -1.087302
| 33>   O     -0.041115   -1.072452   -2.171711
| 34>   H      0.034343   -0.120038   -2.113010
| 35>   H     -0.092162   -1.251734   -3.110585
| 36>   O     -1.992627   -1.154226   -0.204617
| 37>   H     -1.428054   -1.260847   -0.970202
| 38>   H     -1.448229   -1.425123    0.534624
| 39> **                         ****END OF INPUT****
 Total Charge           Charge          ....    0
 Multiplicity           Mult            ....    1
 Number of Electrons    NEL             ....   80
Dispersion correction           -0.023994694
FINAL SINGLE POINT ENERGY      -610.799394670914
Dispersion correction            ...
Dispersion correction           -0.023658905
FINAL SINGLE POINT ENERGY      -610.808125882344
Dispersion correction            ...
Dispersion correction           -0.024087531
FINAL SINGLE POINT ENERGY      -610.809990405224
Dispersion correction            ...
FINAL SINGLE POINT ENERGY      -610.811432730054
FINAL SINGLE POINT ENERGY      -610.812367820137
FINAL SINGLE POINT ENERGY      -610.812898034394
FINAL SINGLE POINT ENERGY      -610.813138920274
FINAL SINGLE POINT ENERGY      -610.813714265634
FINAL SINGLE POINT ENERGY      -610.814053122194
FINAL SINGLE POINT ENERGY      -610.814332063000
FINAL SINGLE POINT ENERGY      -610.824883333648
FINAL SINGLE POINT ENERGY      -610.816426345343
FINAL SINGLE POINT ENERGY      -610.816442824523
FINAL SINGLE POINT ENERGY      -610.824913277457
FINAL SINGLE POINT ENERGY      -610.824907763768
FINAL SINGLE POINT ENERGY      -610.816434860744
FINAL SINGLE POINT ENERGY      -610.816443034245
Dispersion correction            ...
Dispersion correction           -0.025143260
FINAL SINGLE POINT ENERGY      -610.816433210222
Dispersion correction            ...
Dispersion correction           -0.025140034
FINAL SINGLE POINT ENERGY      -610.816440838067
Dispersion correction            ...
                    ***********************HURRAY********************

CARTESIAN COORDINATES (ANGSTROEM)
---------------------------------
  O      1.970982    1.286056    0.173865
  H      1.333981    1.249410    0.948630
  H      2.733250    1.796443    0.487088
  O      0.130954    1.001208    2.046694
  H     -0.639298    1.221625    1.470121
  H      0.064447    0.022949    2.141845
  O     -0.121162   -1.685626    1.732854
  H      0.627683   -1.695710    1.065339
  H      0.020209   -2.457834    2.301169
  O     -1.805280    1.327487    0.156449
  H     -2.023364    0.361576    0.013990
  H     -2.652839    1.773107    0.305919
  O      1.776930   -1.435583   -0.111400
  H      2.044087   -0.496387    0.025353
  H      1.191856   -1.373151   -0.904213
  O      0.091525    1.738861   -1.774690
  H      0.857473    1.730474   -1.152854
  H     -0.679263    1.759909   -1.160083
  O     -0.065444   -0.894352   -2.061865
  H      0.016065    0.104048   -2.065780
  H     -0.015438   -1.167871   -2.990423
  O     -2.033623   -1.314236   -0.209789
  H     -1.420828   -1.293342   -0.982121
  H     -1.448055   -1.573361    0.539345

 Multiplicity           Mult            ....    1
 Number of Electrons    NEL             ....   80
 Basis Dimension        Dim             ....  192

ORBITAL ENERGIES
----------------

  NO   OCC          E(Eh)            E(eV)
   0   2.0000     -19.134330      -520.6716
   1   2.0000     -19.132286      -520.6160
   2   2.0000     -19.132266      -520.6154
   3   2.0000     -19.130747      -520.5741
   4   2.0000     -19.115761      -520.1663
   5   2.0000     -19.114769      -520.1393
   6   2.0000     -19.114550      -520.1333
   7   2.0000     -19.113633      -520.1084
   8   2.0000      -1.004600       -27.3366
   9   2.0000      -0.990811       -26.9613
  10   2.0000      -0.989325       -26.9209
  11   2.0000      -0.987926       -26.8828
  12   2.0000      -0.969040       -26.3689
  13   2.0000      -0.967853       -26.3366
  14   2.0000      -0.966333       -26.2953
  15   2.0000      -0.953409       -25.9436
  16   2.0000      -0.529598       -14.4111
  17   2.0000      -0.527387       -14.3509
  18   2.0000      -0.524728       -14.2786
  19   2.0000      -0.522124       -14.2077
  20   2.0000      -0.508313       -13.8319
  21   2.0000      -0.506944       -13.7946
  22   2.0000      -0.506139       -13.7727
  23   2.0000      -0.498356       -13.5609
  24   2.0000      -0.438511       -11.9325
  25   2.0000      -0.408264       -11.1094
  26   2.0000      -0.403775       -10.9873
  27   2.0000      -0.400343       -10.8939
  28   2.0000      -0.376221       -10.2375
  29   2.0000      -0.374610       -10.1937
  30   2.0000      -0.372466       -10.1353
  31   2.0000      -0.343003        -9.3336
  32   2.0000      -0.312728        -8.5098
  33   2.0000      -0.312091        -8.4924
  34   2.0000      -0.311420        -8.4742
  35   2.0000      -0.310062        -8.4372
  36   2.0000      -0.301368        -8.2006
  37   2.0000      -0.300818        -8.1857
  38   2.0000      -0.299875        -8.1600
  39   2.0000      -0.299103        -8.1390
  40   0.0000       0.044393         1.2080
  41   0.0000       0.085407         2.3240
  42   0.0000       0.086248         2.3469
  43   0.0000       0.087196         2.3727
  44   0.0000       0.164984         4.4894

MULLIKEN ATOMIC CHARGES
-----------------------
   0 O :   -0.330002
   1 H :    0.159919
   2 H :    0.217348
   3 O :   -0.369663
   4 H :    0.158698
   5 H :    0.158485
   6 O :   -0.326999
   7 H :    0.159386
   8 H :    0.218137
   9 O :   -0.322712
  10 H :    0.154360
  11 H :    0.221333
  12 O :   -0.370079
  13 H :    0.155456
  14 H :    0.160544
  15 O :   -0.364239
  16 H :    0.161337
  17 H :    0.162446
  18 O :   -0.326168
  19 H :    0.152345
  20 H :    0.219584
  21 O :   -0.370376
  22 H :    0.163277
  23 H :    0.157584
Sum of atomic charges:   -0.0000000

LOEWDIN ATOMIC CHARGES
----------------------
   0 O :   -0.095284
   1 H :    0.038678
   2 H :    0.109820
   3 O :   -0.142280
   4 H :    0.039808
   5 H :    0.040557
   6 O :   -0.092347
   7 H :    0.040973
   8 H :    0.110721
   9 O :   -0.082168
  10 H :    0.043718
  11 H :    0.112183
  12 O :   -0.145879
  13 H :    0.041937
  14 H :    0.041825
  15 O :   -0.145483
  16 H :    0.043440
  17 H :    0.043190
  18 O :   -0.086203
  19 H :    0.040196
  20 H :    0.110876
  21 O :   -0.150616
  22 H :    0.041462
  23 H :    0.040875

  Mayer bond orders larger than 0.1
B(  0-O ,  1-H ) :   0.8376 B(  0-O ,  2-H ) :   0.9628 B(  0-O , 13-H ) :   0.1791
B(  0-O , 16-H ) :   0.1707 B(  1-H ,  3-O ) :   0.2430 B(  3-O ,  4-H ) :   0.9038
B(  3-O ,  5-H ) :   0.9104 B(  4-H ,  9-O ) :   0.1803 B(  5-H ,  6-O ) :   0.1749
B(  6-O ,  7-H ) :   0.8406 B(  6-O ,  8-H ) :   0.9623 B(  6-O , 23-H ) :   0.1756
B(  7-H , 12-O ) :   0.2394 B(  9-O , 10-H ) :   0.8468 B(  9-O , 11-H ) :   0.9609
B(  9-O , 17-H ) :   0.1674 B( 10-H , 21-O ) :   0.2425 B( 12-O , 13-H ) :   0.9094
B( 12-O , 14-H ) :   0.9066 B( 14-H , 18-O ) :   0.1754 B( 15-O , 16-H ) :   0.9125
B( 15-O , 17-H ) :   0.9135 B( 15-O , 19-H ) :   0.2484 B( 18-O , 19-H ) :   0.8431
B( 18-O , 20-H ) :   0.9616 B( 18-O , 22-H ) :   0.1691 B( 21-O , 22-H ) :   0.9108
B( 21-O , 23-H ) :   0.9117

Dispersion correction           -0.025140605
FINAL SINGLE POINT ENERGY      -610.816465052494

DIPOLE MOMENT
-------------
                                X             Y             Z
Electronic contribution:     -0.03455       0.02574      -0.01852
Nuclear contribution   :      0.10005      -0.07137       0.11577
                        -----------------------------------------
Total Dipole Moment    :      0.06550      -0.04563       0.09725
                        -----------------------------------------
Magnitude (a.u.)       :      0.12582
Magnitude (Debye)      :      0.31981

                             ****ORCA TERMINATED NORMALLY****
TOTAL RUN TIME: 0 days 0 hours 52 minutes 33 seconds 296 msec
