                         Program Version 3.0.3 - RELEASE   -
|  1> ! BP86 Def2-SVP TightSCF Opt D3BJ
|  2>
|  3> %pal nprocs 12 end
|  4>
|  5> %scf
|  6>         maxiter 800
|  7> end
|  8>
|  9> * xyz  0  1
| 10>   O      2.136582    1.519458    0.230719
| 11>   H      1.426995    1.353770    0.851417
| 12>   H      2.689775    2.167996    0.666160
| 13>   O      0.146258    0.992856    1.935357
| 14>   H     -0.655145    1.231255    1.469362
| 15>   H      0.065310    0.051006    2.085685
| 16>   O     -0.095343   -1.746018    1.748850
| 17>   H      0.598880   -1.804849    1.092478
| 18>   H     -0.079827   -2.594679    2.191305
| 19>   O     -1.964583    1.450743    0.265233
| 20>   H     -2.119255    0.525575    0.074517
| 21>   H     -2.840189    1.827121    0.354031
| 22>   O      1.817159   -1.545651   -0.143354
| 23>   H      2.205582   -0.682716    0.000530
| 24>   H      1.359880   -1.466436   -0.980524
| 25>   O      0.076357    1.581477   -1.652138
| 26>   H      0.832883    1.662848   -1.071380
| 27>   H     -0.678628    1.746365   -1.087302
| 28>   O     -0.041115   -1.072452   -2.171711
| 29>   H      0.034343   -0.120038   -2.113010
| 30>   H     -0.092162   -1.251734   -3.110585
| 31>   O     -1.992627   -1.154226   -0.204617
| 32>   H     -1.428054   -1.260847   -0.970202
| 33>   H     -1.448229   -1.425123    0.534624
| 34> **                         ****END OF INPUT****
 Total Charge           Charge          ....    0
 Multiplicity           Mult            ....    1
 Number of Electrons    NEL             ....   80
Dispersion correction           -0.022131190
FINAL SINGLE POINT ENERGY      -611.076079127438
Dispersion correction            ...
Dispersion correction           -0.021776494
FINAL SINGLE POINT ENERGY      -611.091898000045
Dispersion correction            ...
Dispersion correction           -0.022034696
FINAL SINGLE POINT ENERGY      -611.095798215837
Dispersion correction            ...
FINAL SINGLE POINT ENERGY      -611.098547271341
FINAL SINGLE POINT ENERGY      -611.100808322422
FINAL SINGLE POINT ENERGY      -611.102626451741
FINAL SINGLE POINT ENERGY      -611.103967574757
FINAL SINGLE POINT ENERGY      -611.104838479906
FINAL SINGLE POINT ENERGY      -611.105296987384
FINAL SINGLE POINT ENERGY      -611.105519145358
FINAL SINGLE POINT ENERGY      -611.108882524341
FINAL SINGLE POINT ENERGY      -611.108889650852
FINAL SINGLE POINT ENERGY      -611.108895622472
FINAL SINGLE POINT ENERGY      -611.108901535708
FINAL SINGLE POINT ENERGY      -611.108908407586
FINAL SINGLE POINT ENERGY      -611.108916951485
FINAL SINGLE POINT ENERGY      -611.108926072444
Dispersion correction            ...
Dispersion correction           -0.023921227
FINAL SINGLE POINT ENERGY      -611.108933098703
Dispersion correction            ...
Dispersion correction           -0.023923763
FINAL SINGLE POINT ENERGY      -611.108937402926
Dispersion correction            ...
                    ***********************HURRAY********************

CARTESIAN COORDINATES (ANGSTROEM)
---------------------------------
  O      1.902866    1.200084    0.240898
  H      1.215448    1.201519    1.035136
  H      2.647137    1.759696    0.528025
  O      0.121947    1.061345    2.057339
  H     -0.682350    1.295585    1.510075
  H      0.049043    0.066190    2.123530
  O     -0.057746   -1.596518    1.612843
  H      0.723346   -1.623343    0.909848
  H      0.089266   -2.357404    2.203606
  O     -1.809803    1.360646    0.196401
  H     -1.979957    0.337894    0.025143
  H     -2.690587    1.768576    0.282165
  O      1.789056   -1.476976   -0.138103
  H      2.058491   -0.523230   -0.004776
  H      1.226706   -1.420114   -0.963946
  O      0.087734    1.561498   -1.725621
  H      0.859467    1.600898   -1.089888
  H     -0.694439    1.679118   -1.115058
  O     -0.045857   -0.962390   -2.050021
  H      0.027418    0.085242   -2.001484
  H     -0.041045   -1.190209   -2.997509
  O     -2.010350   -1.148158   -0.196385
  H     -1.411673   -1.229626   -0.992641
  H     -1.419271   -1.464618    0.545869

 Multiplicity           Mult            ....    1
 Number of Electrons    NEL             ....   80
 Basis Dimension        Dim             ....  192

ORBITAL ENERGIES
----------------

  NO   OCC          E(Eh)            E(eV)
   0   2.0000     -18.781647      -511.0746
   1   2.0000     -18.781486      -511.0702
   2   2.0000     -18.781384      -511.0674
   3   2.0000     -18.781188      -511.0621
   4   2.0000     -18.759968      -510.4847
   5   2.0000     -18.759841      -510.4812
   6   2.0000     -18.759260      -510.4654
   7   2.0000     -18.758870      -510.4548
   8   2.0000      -0.922844       -25.1119
   9   2.0000      -0.907823       -24.7031
  10   2.0000      -0.904951       -24.6250
  11   2.0000      -0.904797       -24.6208
  12   2.0000      -0.882243       -24.0070
  13   2.0000      -0.881902       -23.9978
  14   2.0000      -0.879095       -23.9214
  15   2.0000      -0.864901       -23.5351
  16   2.0000      -0.481189       -13.0938
  17   2.0000      -0.477744       -13.0001
  18   2.0000      -0.477461       -12.9924
  19   2.0000      -0.476493       -12.9660
  20   2.0000      -0.454623       -12.3709
  21   2.0000      -0.453715       -12.3462
  22   2.0000      -0.448180       -12.1956
  23   2.0000      -0.447897       -12.1879
  24   2.0000      -0.396739       -10.7958
  25   2.0000      -0.357719        -9.7340
  26   2.0000      -0.355455        -9.6724
  27   2.0000      -0.355289        -9.6679
  28   2.0000      -0.324641        -8.8339
  29   2.0000      -0.324273        -8.8239
  30   2.0000      -0.322793        -8.7836
  31   2.0000      -0.285306        -7.7636
  32   2.0000      -0.264787        -7.2052
  33   2.0000      -0.264389        -7.1944
  34   2.0000      -0.263354        -7.1662
  35   2.0000      -0.261520        -7.1163
  36   2.0000      -0.249389        -6.7862
  37   2.0000      -0.246891        -6.7183
  38   2.0000      -0.246774        -6.7151
  39   2.0000      -0.245188        -6.6719
  40   0.0000       0.011047         0.3006
  41   0.0000       0.042506         1.1567
  42   0.0000       0.043025         1.1708
  43   0.0000       0.043186         1.1751
  44   0.0000       0.127636         3.4732

MULLIKEN ATOMIC CHARGES
-----------------------
   0 O :   -0.340415
   1 H :    0.162218
   2 H :    0.183005
   3 O :   -0.306906
   4 H :    0.151689
   5 H :    0.149259
   6 O :   -0.339669
   7 H :    0.161719
   8 H :    0.182275
   9 O :   -0.342893
  10 H :    0.164467
  11 H :    0.183509
  12 O :   -0.305315
  13 H :    0.149883
  14 H :    0.151123
  15 O :   -0.303427
  16 H :    0.150158
  17 H :    0.150162
  18 O :   -0.339706
  19 H :    0.162116
  20 H :    0.182570
  21 O :   -0.304893
  22 H :    0.147763
  23 H :    0.151308
Sum of atomic charges:   -0.0000000

LOEWDIN ATOMIC CHARGES
----------------------
   0 O :   -0.106187
   1 H :    0.027002
   2 H :    0.084391
   3 O :   -0.083877
   4 H :    0.038288
   5 H :    0.038340
   6 O :   -0.105788
   7 H :    0.027054
   8 H :    0.084237
   9 O :   -0.107073
  10 H :    0.027876
  11 H :    0.084656
  12 O :   -0.082964
  13 H :    0.039181
  14 H :    0.038652
  15 O :   -0.081709
  16 H :    0.038758
  17 H :    0.039491
  18 O :   -0.106052
  19 H :    0.027343
  20 H :    0.084275
  21 O :   -0.082431
  22 H :    0.038331
  23 H :    0.038207

  Mayer bond orders larger than 0.1
B(  0-O ,  1-H ) :   0.7578 B(  0-O ,  2-H ) :   0.9767 B(  0-O , 13-H ) :   0.1897
B(  0-O , 16-H ) :   0.1926 B(  1-H ,  3-O ) :   0.3196 B(  3-O ,  4-H ) :   0.8936
B(  3-O ,  5-H ) :   0.8973 B(  4-H ,  9-O ) :   0.1930 B(  5-H ,  6-O ) :   0.1902
B(  6-O ,  7-H ) :   0.7581 B(  6-O ,  8-H ) :   0.9771 B(  6-O , 23-H ) :   0.1922
B(  7-H , 12-O ) :   0.3190 B(  9-O , 10-H ) :   0.7589 B(  9-O , 11-H ) :   0.9765
B(  9-O , 17-H ) :   0.1874 B( 10-H , 21-O ) :   0.3165 B( 12-O , 13-H ) :   0.8974
B( 12-O , 14-H ) :   0.8952 B( 14-H , 18-O ) :   0.1916 B( 15-O , 16-H ) :   0.8952
B( 15-O , 17-H ) :   0.8998 B( 15-O , 19-H ) :   0.3174 B( 18-O , 19-H ) :   0.7595
B( 18-O , 20-H ) :   0.9769 B( 18-O , 22-H ) :   0.1897 B( 21-O , 22-H ) :   0.8990
B( 21-O , 23-H ) :   0.8953

Dispersion correction           -0.023923698
FINAL SINGLE POINT ENERGY      -611.108940284761

DIPOLE MOMENT
-------------
                                X             Y             Z
Electronic contribution:     -0.00364       0.00530      -0.00616
Nuclear contribution   :      0.01773      -0.01073       0.00282
                        -----------------------------------------
Total Dipole Moment    :      0.01409      -0.00542      -0.00334
                        -----------------------------------------
Magnitude (a.u.)       :      0.01546
Magnitude (Debye)      :      0.03930

                             ****ORCA TERMINATED NORMALLY****
TOTAL RUN TIME: 0 days 0 hours 47 minutes 19 seconds 818 msec
