                         Program Version 3.0.3 - RELEASE   -
|  1> ! BP86 Def2-SVP TightSCF Opt D3BJ COSMO
|  2>
|  3> %pal nprocs 12 end
|  4>
|  5> %scf
|  6>         maxiter 800
|  7> end
|  8>
|  9> %cosmo
| 10> 	SMD true
| 11>         solvent "WATER"
| 12> end
| 13>
| 14> * xyz  0  1
| 15>   O      2.136582    1.519458    0.230719
| 16>   H      1.426995    1.353770    0.851417
| 17>   H      2.689775    2.167996    0.666160
| 18>   O      0.146258    0.992856    1.935357
| 19>   H     -0.655145    1.231255    1.469362
| 20>   H      0.065310    0.051006    2.085685
| 21>   O     -0.095343   -1.746018    1.748850
| 22>   H      0.598880   -1.804849    1.092478
| 23>   H     -0.079827   -2.594679    2.191305
| 24>   O     -1.964583    1.450743    0.265233
| 25>   H     -2.119255    0.525575    0.074517
| 26>   H     -2.840189    1.827121    0.354031
| 27>   O      1.817159   -1.545651   -0.143354
| 28>   H      2.205582   -0.682716    0.000530
| 29>   H      1.359880   -1.466436   -0.980524
| 30>   O      0.076357    1.581477   -1.652138
| 31>   H      0.832883    1.662848   -1.071380
| 32>   H     -0.678628    1.746365   -1.087302
| 33>   O     -0.041115   -1.072452   -2.171711
| 34>   H      0.034343   -0.120038   -2.113010
| 35>   H     -0.092162   -1.251734   -3.110585
| 36>   O     -1.992627   -1.154226   -0.204617
| 37>   H     -1.428054   -1.260847   -0.970202
| 38>   H     -1.448229   -1.425123    0.534624
| 39> **                         ****END OF INPUT****
 Total Charge           Charge          ....    0
 Multiplicity           Mult            ....    1
 Number of Electrons    NEL             ....   80
Dispersion correction           -0.022131190
FINAL SINGLE POINT ENERGY      -611.104466261309
Dispersion correction            ...
Dispersion correction           -0.021771722
FINAL SINGLE POINT ENERGY      -611.129264364675
Dispersion correction            ...
Dispersion correction           -0.022089986
FINAL SINGLE POINT ENERGY      -611.123858338245
Dispersion correction            ...
FINAL SINGLE POINT ENERGY      -611.126178874619
FINAL SINGLE POINT ENERGY      -611.128059151905
FINAL SINGLE POINT ENERGY      -611.129498419830
FINAL SINGLE POINT ENERGY      -611.130574335244
FINAL SINGLE POINT ENERGY      -611.131235330628
FINAL SINGLE POINT ENERGY      -611.131626287982
FINAL SINGLE POINT ENERGY      -611.131937271354
FINAL SINGLE POINT ENERGY      -611.135818629406
FINAL SINGLE POINT ENERGY      -611.135823728604
FINAL SINGLE POINT ENERGY      -611.135824935845
FINAL SINGLE POINT ENERGY      -611.135853027251
FINAL SINGLE POINT ENERGY      -611.135864181804
FINAL SINGLE POINT ENERGY      -611.144137217393
FINAL SINGLE POINT ENERGY      -611.135866116630
Dispersion correction            ...
Dispersion correction           -0.023904671
FINAL SINGLE POINT ENERGY      -611.135908873955
Dispersion correction            ...
Dispersion correction           -0.023895732
FINAL SINGLE POINT ENERGY      -611.135925575808
Dispersion correction            ...
                    ***********************HURRAY********************

CARTESIAN COORDINATES (ANGSTROEM)
---------------------------------
  O      1.886588    1.183364    0.226222
  H      1.233332    1.206647    1.022388
  H      2.647150    1.735918    0.493454
  O      0.084505    1.062040    2.101507
  H     -0.693324    1.282427    1.506582
  H      0.039891    0.060459    2.122993
  O     -0.060142   -1.577541    1.601126
  H      0.715960   -1.629618    0.922603
  H      0.057139   -2.345963    2.193466
  O     -1.789741    1.353269    0.192822
  H     -1.986384    0.355778    0.025982
  H     -2.663736    1.780866    0.285098
  O      1.837395   -1.476059   -0.170970
  H      2.057380   -0.511936   -0.002220
  H      1.231853   -1.401188   -0.968460
  O      0.087052    1.627434   -1.724938
  H      0.853366    1.609100   -1.077504
  H     -0.698363    1.679069   -1.105506
  O     -0.045654   -0.955952   -2.019984
  H      0.028139    0.072618   -2.010101
  H     -0.034427   -1.211054   -2.963491
  O     -2.023533   -1.210322   -0.204328
  H     -1.404735   -1.231062   -0.992298
  H     -1.404866   -1.472591    0.541001

 Multiplicity           Mult            ....    1
 Number of Electrons    NEL             ....   80
 Basis Dimension        Dim             ....  192

ORBITAL ENERGIES
----------------

  NO   OCC          E(Eh)            E(eV)
   0   2.0000     -18.779100      -511.0053
   1   2.0000     -18.778969      -511.0017
   2   2.0000     -18.778958      -511.0014
   3   2.0000     -18.778242      -510.9819
   4   2.0000     -18.761002      -510.5128
   5   2.0000     -18.760898      -510.5100
   6   2.0000     -18.760576      -510.5012
   7   2.0000     -18.760440      -510.4975
   8   2.0000      -0.920243       -25.0411
   9   2.0000      -0.904483       -24.6122
  10   2.0000      -0.902334       -24.5537
  11   2.0000      -0.902072       -24.5466
  12   2.0000      -0.881036       -23.9742
  13   2.0000      -0.880769       -23.9669
  14   2.0000      -0.878668       -23.9098
  15   2.0000      -0.863573       -23.4990
  16   2.0000      -0.473768       -12.8919
  17   2.0000      -0.471232       -12.8229
  18   2.0000      -0.469841       -12.7850
  19   2.0000      -0.469659       -12.7801
  20   2.0000      -0.453001       -12.3268
  21   2.0000      -0.452266       -12.3068
  22   2.0000      -0.447360       -12.1733
  23   2.0000      -0.446855       -12.1596
  24   2.0000      -0.393361       -10.7039
  25   2.0000      -0.356898        -9.7117
  26   2.0000      -0.356753        -9.7077
  27   2.0000      -0.355010        -9.6603
  28   2.0000      -0.327144        -8.9021
  29   2.0000      -0.324970        -8.8429
  30   2.0000      -0.324705        -8.8357
  31   2.0000      -0.290835        -7.9140
  32   2.0000      -0.262787        -7.1508
  33   2.0000      -0.262318        -7.1380
  34   2.0000      -0.261803        -7.1240
  35   2.0000      -0.260841        -7.0978
  36   2.0000      -0.251804        -6.8519
  37   2.0000      -0.251716        -6.8495
  38   2.0000      -0.251560        -6.8453
  39   2.0000      -0.249144        -6.7795
  40   0.0000       0.024577         0.6688
  41   0.0000       0.065865         1.7923
  42   0.0000       0.066623         1.8129
  43   0.0000       0.066734         1.8159
  44   0.0000       0.144870         3.9421

MULLIKEN ATOMIC CHARGES
-----------------------
   0 O :   -0.332927
   1 H :    0.155616
   2 H :    0.225503
   3 O :   -0.364051
   4 H :    0.158809
   5 H :    0.157279
   6 O :   -0.334016
   7 H :    0.154997
   8 H :    0.224040
   9 O :   -0.335422
  10 H :    0.157639
  11 H :    0.225841
  12 O :   -0.362395
  13 H :    0.158141
  14 H :    0.158195
  15 O :   -0.359680
  16 H :    0.157208
  17 H :    0.157100
  18 O :   -0.332267
  19 H :    0.155176
  20 H :    0.224720
  21 O :   -0.362330
  22 H :    0.155387
  23 H :    0.157438
Sum of atomic charges:   -0.0000000

LOEWDIN ATOMIC CHARGES
----------------------
   0 O :   -0.083201
   1 H :    0.034698
   2 H :    0.113387
   3 O :   -0.140116
   4 H :    0.037493
   5 H :    0.037804
   6 O :   -0.085524
   7 H :    0.033842
   8 H :    0.112464
   9 O :   -0.084937
  10 H :    0.035725
  11 H :    0.113601
  12 O :   -0.138247
  13 H :    0.038070
  14 H :    0.037807
  15 O :   -0.137412
  16 H :    0.037612
  17 H :    0.038074
  18 O :   -0.083992
  19 H :    0.034989
  20 H :    0.113083
  21 O :   -0.139544
  22 H :    0.037286
  23 H :    0.037038

  Mayer bond orders larger than 0.1
B(  0-O ,  1-H ) :   0.7949 B(  0-O ,  2-H ) :   0.9566 B(  0-O , 13-H ) :   0.1987
B(  0-O , 16-H ) :   0.1999 B(  1-H ,  3-O ) :   0.2895 B(  3-O ,  4-H ) :   0.8847
B(  3-O ,  5-H ) :   0.8886 B(  4-H ,  9-O ) :   0.2005 B(  5-H ,  6-O ) :   0.1970
B(  6-O ,  7-H ) :   0.7927 B(  6-O ,  8-H ) :   0.9573 B(  6-O , 23-H ) :   0.2014
B(  7-H , 12-O ) :   0.2913 B(  9-O , 10-H ) :   0.7963 B(  9-O , 11-H ) :   0.9565
B(  9-O , 17-H ) :   0.1954 B( 10-H , 21-O ) :   0.2861 B( 12-O , 13-H ) :   0.8869
B( 12-O , 14-H ) :   0.8860 B( 14-H , 18-O ) :   0.1998 B( 15-O , 16-H ) :   0.8870
B( 15-O , 17-H ) :   0.8913 B( 15-O , 19-H ) :   0.2876 B( 18-O , 19-H ) :   0.7967
B( 18-O , 20-H ) :   0.9570 B( 18-O , 22-H ) :   0.1972 B( 21-O , 22-H ) :   0.8902
B( 21-O , 23-H ) :   0.8862

Dispersion correction           -0.023892279
FINAL SINGLE POINT ENERGY      -611.135925166777

DIPOLE MOMENT
-------------
                                X             Y             Z
Electronic contribution:      0.00585       0.01242      -0.00694
Nuclear contribution   :      0.02117      -0.02747      -0.00743
                        -----------------------------------------
Total Dipole Moment    :      0.02702      -0.01505      -0.01437
                        -----------------------------------------
Magnitude (a.u.)       :      0.03410
Magnitude (Debye)      :      0.08668

                             ****ORCA TERMINATED NORMALLY****
TOTAL RUN TIME: 0 days 0 hours 43 minutes 10 seconds 218 msec
