                         Program Version 3.0.3 - RELEASE   -
|  1> ! B3LYP Def2-SVP def2-SVP/J RIJCOSX TightSCF Grid4 D3BJ OPT
|  2>
|  3> %pal nprocs 12 end
|  4>
|  5> %scf
|  6>         maxiter 400
|  7> end
|  8>
|  9> * xyz  0  1
| 10>   O      2.136582    1.519458    0.230719
| 11>   H      1.426995    1.353770    0.851417
| 12>   H      2.689775    2.167996    0.666160
| 13>   O      0.146258    0.992856    1.935357
| 14>   H     -0.655145    1.231255    1.469362
| 15>   H      0.065310    0.051006    2.085685
| 16>   O     -0.095343   -1.746018    1.748850
| 17>   H      0.598880   -1.804849    1.092478
| 18>   H     -0.079827   -2.594679    2.191305
| 19>   O     -1.964583    1.450743    0.265233
| 20>   H     -2.119255    0.525575    0.074517
| 21>   H     -2.840189    1.827121    0.354031
| 22>   O      1.817159   -1.545651   -0.143354
| 23>   H      2.205582   -0.682716    0.000530
| 24>   H      1.359880   -1.466436   -0.980524
| 25>   O      0.076357    1.581477   -1.652138
| 26>   H      0.832883    1.662848   -1.071380
| 27>   H     -0.678628    1.746365   -1.087302
| 28>   O     -0.041115   -1.072452   -2.171711
| 29>   H      0.034343   -0.120038   -2.113010
| 30>   H     -0.092162   -1.251734   -3.110585
| 31>   O     -1.992627   -1.154226   -0.204617
| 32>   H     -1.428054   -1.260847   -0.970202
| 33>   H     -1.448229   -1.425123    0.534624
| 34> **                         ****END OF INPUT****
 Total Charge           Charge          ....    0
 Multiplicity           Mult            ....    1
 Number of Electrons    NEL             ....   80
Dispersion correction           -0.023994694
FINAL SINGLE POINT ENERGY      -610.770046184201
Dispersion correction            ...
Dispersion correction           -0.023655591
FINAL SINGLE POINT ENERGY      -610.779087435599
Dispersion correction            ...
Dispersion correction           -0.024000490
FINAL SINGLE POINT ENERGY      -610.781418155843
Dispersion correction            ...
FINAL SINGLE POINT ENERGY      -610.783149905716
FINAL SINGLE POINT ENERGY      -610.784418775208
FINAL SINGLE POINT ENERGY      -610.785211222379
FINAL SINGLE POINT ENERGY      -610.785535258843
FINAL SINGLE POINT ENERGY      -610.785789490614
FINAL SINGLE POINT ENERGY      -610.786176329195
FINAL SINGLE POINT ENERGY      -610.786441955733
FINAL SINGLE POINT ENERGY      -610.788093950998
FINAL SINGLE POINT ENERGY      -610.788091377925
FINAL SINGLE POINT ENERGY      -610.788086821419
FINAL SINGLE POINT ENERGY      -610.788084456129
FINAL SINGLE POINT ENERGY      -610.788088266329
FINAL SINGLE POINT ENERGY      -610.788100573595
FINAL SINGLE POINT ENERGY      -610.788118194025
Dispersion correction            ...
Dispersion correction           -0.025146904
FINAL SINGLE POINT ENERGY      -610.788132384713
Dispersion correction            ...
Dispersion correction           -0.025151654
FINAL SINGLE POINT ENERGY      -610.788138393155
Dispersion correction            ...
                    ***********************HURRAY********************

CARTESIAN COORDINATES (ANGSTROEM)
---------------------------------
  O      1.994004    1.309692    0.217771
  H      1.325875    1.253611    0.979942
  H      2.727352    1.848064    0.543088
  O      0.160451    1.016273    2.027547
  H     -0.644112    1.259577    1.516331
  H      0.064707    0.047374    2.158365
  O     -0.109598   -1.694088    1.717073
  H      0.633250   -1.668712    1.027379
  H      0.061199   -2.467328    2.270145
  O     -1.842613    1.356523    0.195221
  H     -2.012367    0.370086    0.028730
  H     -2.709681    1.773483    0.281917
  O      1.740195   -1.422890   -0.101059
  H      2.054318   -0.497307    0.004170
  H      1.217905   -1.392734   -0.934671
  O      0.094399    1.593497   -1.745095
  H      0.871049    1.676400   -1.146996
  H     -0.670889    1.715381   -1.140076
  O     -0.060239   -0.951947   -2.126605
  H      0.018632    0.058098   -2.057860
  H     -0.041910   -1.163252   -3.069076
  O     -2.018331   -1.207117   -0.202890
  H     -1.432459   -1.289710   -0.988344
  H     -1.466289   -1.537273    0.540437

 Multiplicity           Mult            ....    1
 Number of Electrons    NEL             ....   80
 Basis Dimension        Dim             ....  192

ORBITAL ENERGIES
----------------

  NO   OCC          E(Eh)            E(eV)
   0   2.0000     -19.136857      -520.7404
   1   2.0000     -19.135959      -520.7159
   2   2.0000     -19.134266      -520.6698
   3   2.0000     -19.133167      -520.6399
   4   2.0000     -19.112445      -520.0761
   5   2.0000     -19.111813      -520.0589
   6   2.0000     -19.111401      -520.0477
   7   2.0000     -19.110747      -520.0299
   8   2.0000      -1.006706       -27.3939
   9   2.0000      -0.994250       -27.0549
  10   2.0000      -0.991995       -26.9936
  11   2.0000      -0.991039       -26.9675
  12   2.0000      -0.968242       -26.3472
  13   2.0000      -0.966934       -26.3116
  14   2.0000      -0.965268       -26.2663
  15   2.0000      -0.953657       -25.9503
  16   2.0000      -0.536934       -14.6107
  17   2.0000      -0.535181       -14.5630
  18   2.0000      -0.532415       -14.4877
  19   2.0000      -0.530386       -14.4325
  20   2.0000      -0.508107       -13.8263
  21   2.0000      -0.507034       -13.7971
  22   2.0000      -0.504299       -13.7227
  23   2.0000      -0.499212       -13.5842
  24   2.0000      -0.440209       -11.9787
  25   2.0000      -0.404844       -11.0164
  26   2.0000      -0.403890       -10.9904
  27   2.0000      -0.400437       -10.8964
  28   2.0000      -0.371984       -10.1222
  29   2.0000      -0.371473       -10.1083
  30   2.0000      -0.369628       -10.0581
  31   2.0000      -0.335985        -9.1426
  32   2.0000      -0.314779        -8.5656
  33   2.0000      -0.313903        -8.5417
  34   2.0000      -0.312353        -8.4995
  35   2.0000      -0.311205        -8.4683
  36   2.0000      -0.297829        -8.1043
  37   2.0000      -0.294362        -8.0100
  38   2.0000      -0.293661        -7.9909
  39   2.0000      -0.293076        -7.9750
  40   0.0000       0.031847         0.8666
  41   0.0000       0.062572         1.7027
  42   0.0000       0.062815         1.7093
  43   0.0000       0.064108         1.7445
  44   0.0000       0.148077         4.0294

MULLIKEN ATOMIC CHARGES
-----------------------
   0 O :   -0.325790
   1 H :    0.164141
   2 H :    0.175909
   3 O :   -0.321655
   4 H :    0.152706
   5 H :    0.152248
   6 O :   -0.322134
   7 H :    0.161911
   8 H :    0.176626
   9 O :   -0.325333
  10 H :    0.162747
  11 H :    0.178292
  12 O :   -0.323368
  13 H :    0.150127
  14 H :    0.153601
  15 O :   -0.314339
  16 H :    0.155820
  17 H :    0.151488
  18 O :   -0.327979
  19 H :    0.161336
  20 H :    0.176305
  21 O :   -0.318274
  22 H :    0.153323
  23 H :    0.152292
Sum of atomic charges:   -0.0000000

LOEWDIN ATOMIC CHARGES
----------------------
   0 O :   -0.106448
   1 H :    0.033151
   2 H :    0.082954
   3 O :   -0.098206
   4 H :    0.040918
   5 H :    0.042645
   6 O :   -0.103008
   7 H :    0.034555
   8 H :    0.083656
   9 O :   -0.100199
  10 H :    0.035245
  11 H :    0.083614
  12 O :   -0.101741
  13 H :    0.042964
  14 H :    0.042416
  15 O :   -0.092735
  16 H :    0.044208
  17 H :    0.042545
  18 O :   -0.105224
  19 H :    0.030344
  20 H :    0.082563
  21 O :   -0.098438
  22 H :    0.042545
  23 H :    0.041679

  Mayer bond orders larger than 0.1
B(  0-O ,  1-H ) :   0.8158 B(  0-O ,  2-H ) :   0.9823 B(  0-O , 13-H ) :   0.1662
B(  0-O , 16-H ) :   0.1618 B(  1-H ,  3-O ) :   0.2615 B(  3-O ,  4-H ) :   0.9149
B(  3-O ,  5-H ) :   0.9205 B(  4-H ,  9-O ) :   0.1676 B(  5-H ,  6-O ) :   0.1628
B(  6-O ,  7-H ) :   0.8186 B(  6-O ,  8-H ) :   0.9821 B(  6-O , 23-H ) :   0.1657
B(  7-H , 12-O ) :   0.2589 B(  9-O , 10-H ) :   0.8155 B(  9-O , 11-H ) :   0.9813
B(  9-O , 17-H ) :   0.1620 B( 10-H , 21-O ) :   0.2671 B( 12-O , 13-H ) :   0.9191
B( 12-O , 14-H ) :   0.9157 B( 14-H , 18-O ) :   0.1663 B( 15-O , 16-H ) :   0.9191
B( 15-O , 17-H ) :   0.9213 B( 15-O , 19-H ) :   0.2703 B( 18-O , 19-H ) :   0.8126
B( 18-O , 20-H ) :   0.9820 B( 18-O , 22-H ) :   0.1611 B( 21-O , 22-H ) :   0.9205
B( 21-O , 23-H ) :   0.9189

Dispersion correction           -0.025155833
FINAL SINGLE POINT ENERGY      -610.788137273984

DIPOLE MOMENT
-------------
                                X             Y             Z
Electronic contribution:     -0.03352       0.01935      -0.00460
Nuclear contribution   :      0.06663      -0.01176       0.04125
                        -----------------------------------------
Total Dipole Moment    :      0.03311       0.00759       0.03665
                        -----------------------------------------
Magnitude (a.u.)       :      0.04997
Magnitude (Debye)      :      0.12701

                             ****ORCA TERMINATED NORMALLY****
TOTAL RUN TIME: 0 days 0 hours 48 minutes 18 seconds 992 msec
