                         Program Version 4.2.0 -  RELEASE  -
|  1> # 12meoh.boyd.etal.mol1,8
|  2> ! MP2 def2-TZVP EnGrad TightSCF
|  3>
|  4> %pal
|  5>     nprocs 6
|  6> end
|  7>
|  8> %maxcore 8000
|  9>
| 10> %scf
| 11>     ConvForced true
| 12> end
| 13>
| 14> *xyz 0 1
| 15> O   0.666045193  -2.600503172   0.138317521
| 16> H  -0.227115049  -2.712051982  -0.281868004
| 17> C   0.490021232  -1.851247678   1.341189459
| 18> H   1.466500502  -1.466176022   1.645844415
| 19> H   0.097564527  -2.488364683   2.146902740
| 20> H  -0.187588112  -1.000787499   1.200739571
| 21> O   3.570084754   2.361662577  -0.202416728
| 22> H   3.393280933   1.755669977   0.560634073
| 23> C   4.368082883   1.644741793  -1.143112807
| 24> H   4.552851717   2.311801738  -1.989632421
| 25> H   3.862427494   0.740851663  -1.508095690
| 26> H   5.333949674   1.357289092  -0.706288100
| 27> *
| 28>
| 29>                          ****END OF INPUT****

CARTESIAN COORDINATES (ANGSTROEM)
---------------------------------
  O      0.666045   -2.600503    0.138318
  H     -0.227115   -2.712052   -0.281868
  C      0.490021   -1.851248    1.341189
  H      1.466501   -1.466176    1.645844
  H      0.097565   -2.488365    2.146903
  H     -0.187588   -1.000787    1.200740
  O      3.570085    2.361663   -0.202417
  H      3.393281    1.755670    0.560634
  C      4.368083    1.644742   -1.143113
  H      4.552852    2.311802   -1.989632
  H      3.862427    0.740852   -1.508096
  H      5.333950    1.357289   -0.706288

 Total Charge           Charge          ....    0
 Multiplicity           Mult            ....    1
 Number of Electrons    NEL             ....   36
 Basis Dimension        Dim             ....  172

ORBITAL ENERGIES
----------------

  NO   OCC          E(Eh)            E(eV)
   0   2.0000     -20.561035      -559.4942
   1   2.0000     -20.555151      -559.3341
   2   2.0000     -11.276271      -306.8429
   3   2.0000     -11.268936      -306.6433
   4   2.0000      -1.349216       -36.7140
   5   2.0000      -1.344576       -36.5878
   6   2.0000      -0.924295       -25.1513
   7   2.0000      -0.917221       -24.9589
   8   2.0000      -0.684867       -18.6362
   9   2.0000      -0.679503       -18.4902
  10   2.0000      -0.620763       -16.8918
  11   2.0000      -0.614384       -16.7182
  12   2.0000      -0.594397       -16.1744
  13   2.0000      -0.587361       -15.9829
  14   2.0000      -0.505334       -13.7509
  15   2.0000      -0.499193       -13.5837
  16   2.0000      -0.453333       -12.3358
  17   2.0000      -0.447405       -12.1745
  18   0.0000       0.115860         3.1527
  19   0.0000       0.139482         3.7955
  20   0.0000       0.169841         4.6216
  21   0.0000       0.187726         5.1083
  22   0.0000       0.219451         5.9716

MULLIKEN ATOMIC CHARGES
-----------------------
   0 O :   -0.497522
   1 H :    0.323619
   2 C :   -0.174488
   3 H :    0.120354
   4 H :    0.112798
   5 H :    0.115270
   6 O :   -0.497265
   7 H :    0.319581
   8 C :   -0.176632
   9 H :    0.128212
  10 H :    0.117008
  11 H :    0.109064
Sum of atomic charges:   -0.0000000

LOEWDIN ATOMIC CHARGES
----------------------
   0 O :   -0.112640
   1 H :    0.190560
   2 C :   -0.378328
   3 H :    0.106694
   4 H :    0.096815
   5 H :    0.096894
   6 O :   -0.110805
   7 H :    0.186916
   8 C :   -0.378736
   9 H :    0.110017
  10 H :    0.097225
  11 H :    0.095387

  Mayer bond orders larger than 0.100000
B(  0-O ,  1-H ) :   0.8422 B(  0-O ,  2-C ) :   0.9284 B(  2-C ,  3-H ) :   0.9389
B(  2-C ,  4-H ) :   0.9381 B(  2-C ,  5-H ) :   0.9409 B(  6-O ,  7-H ) :   0.8448
B(  6-O ,  8-C ) :   0.9229 B(  8-C ,  9-H ) :   0.9375 B(  8-C , 10-H ) :   0.9377
B(  8-C , 11-H ) :   0.9395

MP2 TOTAL ENERGY:     -231.013600947 Eh
FINAL SINGLE POINT ENERGY      -231.013600946618

DIPOLE MOMENT
-------------
                                X             Y             Z
Electronic contribution:     -0.65352       0.05993      -0.41481
Nuclear contribution   :      0.22598      -0.49353       0.71549
                        -----------------------------------------
Total Dipole Moment    :     -0.42754      -0.43360       0.30068
                        -----------------------------------------
Magnitude (a.u.)       :      0.67912
Magnitude (Debye)      :      1.72619

Rotational constants in cm-1:     0.408641     0.032934     0.031111
Rotational constants in MHz : 12250.749264   987.325834   932.674303

                             ****ORCA TERMINATED NORMALLY****
TOTAL RUN TIME: 0 days 0 hours 0 minutes 18 seconds 371 msec
