                         Program Version 4.2.0 -  RELEASE  -
|  1> # 12mecn.remya.etal.2.mol9,10
|  2> ! MP2 def2-TZVP EnGrad TightSCF
|  3>
|  4> %pal
|  5>     nprocs 6
|  6> end
|  7>
|  8> %maxcore 8000
|  9>
| 10> %scf
| 11>     ConvForced true
| 12> end
| 13>
| 14> *xyz 0 1
| 15> C   0.923766000   4.000693000  -1.575910000
| 16> H   0.011949000   4.478423000  -1.939550000
| 17> H   0.947903000   2.966558000  -1.929960000
| 18> H   1.805950000   4.519548000  -1.956520000
| 19> C   0.942834000   3.994846000  -0.131200000
| 20> N   0.960035000   3.982544000   1.035639000
| 21> C   4.602033000   0.321019000  -1.784800000
| 22> H   4.827650000  -0.662160000  -2.207910000
| 23> H   5.320558000   1.057980000  -2.148500000
| 24> H   3.601982000   0.643751000  -2.087520000
| 25> C   4.654967000   0.244048000  -0.343060000
| 26> N   4.691648000   0.166590000   0.820757000
| 27> *
| 28>
| 29>                          ****END OF INPUT****

CARTESIAN COORDINATES (ANGSTROEM)
---------------------------------
  C      0.923766    4.000693   -1.575910
  H      0.011949    4.478423   -1.939550
  H      0.947903    2.966558   -1.929960
  H      1.805950    4.519548   -1.956520
  C      0.942834    3.994846   -0.131200
  N      0.960035    3.982544    1.035639
  C      4.602033    0.321019   -1.784800
  H      4.827650   -0.662160   -2.207910
  H      5.320558    1.057980   -2.148500
  H      3.601982    0.643751   -2.087520
  C      4.654967    0.244048   -0.343060
  N      4.691648    0.166590    0.820757

 Total Charge           Charge          ....    0
 Multiplicity           Mult            ....    1
 Number of Electrons    NEL             ....   44
 Basis Dimension        Dim             ....  222

ORBITAL ENERGIES
----------------

  NO   OCC          E(Eh)            E(eV)
   0   2.0000     -15.574189      -423.7952
   1   2.0000     -15.573957      -423.7889
   2   2.0000     -11.288824      -307.1845
   3   2.0000     -11.288752      -307.1826
   4   2.0000     -11.280235      -306.9508
   5   2.0000     -11.280008      -306.9446
   6   2.0000      -1.214783       -33.0559
   7   2.0000      -1.214641       -33.0521
   8   2.0000      -1.047537       -28.5049
   9   2.0000      -1.047208       -28.4960
  10   2.0000      -0.703444       -19.1417
  11   2.0000      -0.702773       -19.1234
  12   2.0000      -0.638280       -17.3685
  13   2.0000      -0.637420       -17.3451
  14   2.0000      -0.634464       -17.2646
  15   2.0000      -0.633199       -17.2302
  16   2.0000      -0.555856       -15.1256
  17   2.0000      -0.555624       -15.1193
  18   2.0000      -0.458665       -12.4809
  19   2.0000      -0.458039       -12.4639
  20   2.0000      -0.457826       -12.4581
  21   2.0000      -0.457152       -12.4397
  22   0.0000       0.091876         2.5001
  23   0.0000       0.132375         3.6021
  24   0.0000       0.154019         4.1911
  25   0.0000       0.165822         4.5123
  26   0.0000       0.170952         4.6518

MULLIKEN ATOMIC CHARGES
-----------------------
   0 C :   -0.283922
   1 H :    0.175465
   2 H :    0.164565
   3 H :    0.171875
   4 C :   -0.143576
   5 N :   -0.084435
   6 C :   -0.278970
   7 H :    0.174607
   8 H :    0.172434
   9 H :    0.161375
  10 C :   -0.144694
  11 N :   -0.084724
Sum of atomic charges:    0.0000000

LOEWDIN ATOMIC CHARGES
----------------------
   0 C :   -0.285412
   1 H :    0.152035
   2 H :    0.150288
   3 H :    0.151128
   4 C :   -0.220664
   5 N :    0.052593
   6 C :   -0.285019
   7 H :    0.153297
   8 H :    0.151095
   9 H :    0.149331
  10 C :   -0.221042
  11 N :    0.052370

  Mayer bond orders larger than 0.100000
B(  0-C ,  1-H ) :   0.9159 B(  0-C ,  2-H ) :   0.9197 B(  0-C ,  3-H ) :   0.9177
B(  0-C ,  4-C ) :   0.9003 B(  4-C ,  5-N ) :   2.8301 B(  6-C ,  7-H ) :   0.9160
B(  6-C ,  8-H ) :   0.9178 B(  6-C ,  9-H ) :   0.9196 B(  6-C , 10-C ) :   0.9008
B( 10-C , 11-N ) :   2.8304

MP2 TOTAL ENERGY:     -264.964598889 Eh
FINAL SINGLE POINT ENERGY      -264.964598889329

DIPOLE MOMENT
-------------
                                X             Y             Z
Electronic contribution:      0.16457      -0.16662       6.30133
Nuclear contribution   :     -0.23319       0.26729      -9.27364
                        -----------------------------------------
Total Dipole Moment    :     -0.06863       0.10067      -2.97231
                        -----------------------------------------
Magnitude (a.u.)       :      2.97481
Magnitude (Debye)      :      7.56136

Rotational constants in cm-1:     0.154405     0.029218     0.024800
Rotational constants in MHz :  4628.937818   875.926135   743.485291

                             ****ORCA TERMINATED NORMALLY****
TOTAL RUN TIME: 0 days 0 hours 0 minutes 46 seconds 277 msec
