                         Program Version 4.2.0 -  RELEASE  -
|  1> # 12h2o.su.etal.mol1,2,4,8,9,10,11
|  2> ! MP2 def2-TZVP EnGrad TightSCF
|  3>
|  4> %pal
|  5>     nprocs 6
|  6> end
|  7>
|  8> %maxcore 8000
|  9>
| 10> %scf
| 11>     ConvForced true
| 12> end
| 13>
| 14> *xyz 0 1
| 15> O  -1.794470000  -0.923410000   2.768350000
| 16> H  -2.338250000  -1.359750000   3.430940000
| 17> H  -0.879480000  -1.303000000   2.865760000
| 18> O   0.923410000  -1.794470000  -2.768350000
| 19> H   1.359750000  -2.338250000  -3.430940000
| 20> H   1.303000000  -0.879480000  -2.865760000
| 21> O  -0.885520000   1.737840000   0.052730000
| 22> H  -1.032320000   2.090180000  -0.841890000
| 23> H  -1.284090000   0.839590000   0.017130000
| 24> O   1.752130000   0.741530000  -2.896280000
| 25> H   2.036450000   0.920500000  -1.984040000
| 26> H   0.921210000   1.242140000  -2.984230000
| 27> O   0.741530000  -1.752130000   2.896280000
| 28> H   0.920500000  -2.036450000   1.984040000
| 29> H   1.242140000  -0.921210000   2.984230000
| 30> O  -0.923410000   1.794470000  -2.768350000
| 31> H  -1.359750000   2.338250000  -3.430940000
| 32> H  -1.303000000   0.879480000  -2.865760000
| 33> O  -0.741530000   1.752130000   2.896280000
| 34> H  -0.920500000   2.036450000   1.984040000
| 35> H  -1.242140000   0.921210000   2.984230000
| 36> *
| 37>
| 38>                          ****END OF INPUT****

CARTESIAN COORDINATES (ANGSTROEM)
---------------------------------
  O     -1.794470   -0.923410    2.768350
  H     -2.338250   -1.359750    3.430940
  H     -0.879480   -1.303000    2.865760
  O      0.923410   -1.794470   -2.768350
  H      1.359750   -2.338250   -3.430940
  H      1.303000   -0.879480   -2.865760
  O     -0.885520    1.737840    0.052730
  H     -1.032320    2.090180   -0.841890
  H     -1.284090    0.839590    0.017130
  O      1.752130    0.741530   -2.896280
  H      2.036450    0.920500   -1.984040
  H      0.921210    1.242140   -2.984230
  O      0.741530   -1.752130    2.896280
  H      0.920500   -2.036450    1.984040
  H      1.242140   -0.921210    2.984230
  O     -0.923410    1.794470   -2.768350
  H     -1.359750    2.338250   -3.430940
  H     -1.303000    0.879480   -2.865760
  O     -0.741530    1.752130    2.896280
  H     -0.920500    2.036450    1.984040
  H     -1.242140    0.921210    2.984230

 Total Charge           Charge          ....    0
 Multiplicity           Mult            ....    1
 Number of Electrons    NEL             ....   70
 Basis Dimension        Dim             ....  301

ORBITAL ENERGIES
----------------

  NO   OCC          E(Eh)            E(eV)
   0   2.0000     -20.628066      -561.3182
   1   2.0000     -20.593249      -560.3708
   2   2.0000     -20.579376      -559.9933
   3   2.0000     -20.560481      -559.4791
   4   2.0000     -20.539722      -558.9143
   5   2.0000     -20.527633      -558.5853
   6   2.0000     -20.494228      -557.6763
   7   2.0000      -1.408505       -38.3274
   8   2.0000      -1.379063       -37.5262
   9   2.0000      -1.368028       -37.2259
  10   2.0000      -1.341932       -36.5158
  11   2.0000      -1.323813       -36.0228
  12   2.0000      -1.309545       -35.6345
  13   2.0000      -1.279315       -34.8119
  14   2.0000      -0.774085       -21.0639
  15   2.0000      -0.735565       -20.0157
  16   2.0000      -0.730891       -19.8886
  17   2.0000      -0.712744       -19.3947
  18   2.0000      -0.709025       -19.2936
  19   2.0000      -0.697228       -18.9726
  20   2.0000      -0.656606       -17.8672
  21   2.0000      -0.647056       -17.6073
  22   2.0000      -0.618541       -16.8314
  23   2.0000      -0.611356       -16.6358
  24   2.0000      -0.589627       -16.0446
  25   2.0000      -0.573015       -15.5925
  26   2.0000      -0.561865       -15.2891
  27   2.0000      -0.553738       -15.0680
  28   2.0000      -0.527955       -14.3664
  29   2.0000      -0.517725       -14.0880
  30   2.0000      -0.511222       -13.9111
  31   2.0000      -0.503649       -13.7050
  32   2.0000      -0.484300       -13.1785
  33   2.0000      -0.478500       -13.0206
  34   2.0000      -0.444600       -12.0982
  35   0.0000       0.082853         2.2546
  36   0.0000       0.113315         3.0835
  37   0.0000       0.144570         3.9339
  38   0.0000       0.157165         4.2767
  39   0.0000       0.167312         4.5528

MULLIKEN ATOMIC CHARGES
-----------------------
   0 O :   -0.738116
   1 H :    0.338449
   2 H :    0.378316
   3 O :   -0.742496
   4 H :    0.328582
   5 H :    0.364318
   6 O :   -0.711388
   7 H :    0.367245
   8 H :    0.341089
   9 O :   -0.699218
  10 H :    0.358233
  11 H :    0.372642
  12 O :   -0.688854
  13 H :    0.362587
  14 H :    0.370692
  15 O :   -0.722574
  16 H :    0.369867
  17 H :    0.378051
  18 O :   -0.738218
  19 H :    0.364859
  20 H :    0.345931
Sum of atomic charges:   -0.0000000

LOEWDIN ATOMIC CHARGES
----------------------
   0 O :   -0.341157
   1 H :    0.154484
   2 H :    0.144991
   3 O :   -0.378122
   4 H :    0.149820
   5 H :    0.140389
   6 O :   -0.325628
   7 H :    0.149081
   8 H :    0.171189
   9 O :   -0.280991
  10 H :    0.173235
  11 H :    0.152241
  12 O :   -0.271116
  13 H :    0.176531
  14 H :    0.180345
  15 O :   -0.287761
  16 H :    0.170767
  17 H :    0.194798
  18 O :   -0.361466
  19 H :    0.148200
  20 H :    0.140172

  Mayer bond orders larger than 0.100000
B(  0-O ,  1-H ) :   0.8501 B(  0-O ,  2-H ) :   0.7659 B(  3-O ,  4-H ) :   0.8588
B(  3-O ,  5-H ) :   0.7768 B(  6-O ,  7-H ) :   0.8171 B(  6-O ,  8-H ) :   0.8418
B(  9-O , 10-H ) :   0.8365 B(  9-O , 11-H ) :   0.8064 B( 12-O , 13-H ) :   0.8344
B( 12-O , 14-H ) :   0.8246 B( 15-O , 16-H ) :   0.8288 B( 15-O , 17-H ) :   0.8139
B( 18-O , 19-H ) :   0.8262 B( 18-O , 20-H ) :   0.8203

MP2 TOTAL ENERGY:     -534.242902373 Eh
FINAL SINGLE POINT ENERGY      -534.242902373070

DIPOLE MOMENT
-------------
                                X             Y             Z
Electronic contribution:      0.26161       0.25200       0.02160
Nuclear contribution   :     -0.59993      -0.56789      -2.09298
                        -----------------------------------------
Total Dipole Moment    :     -0.33832      -0.31589      -2.07138
                        -----------------------------------------
Magnitude (a.u.)       :      2.12247
Magnitude (Debye)      :      5.39488

Rotational constants in cm-1:     0.039153     0.016645     0.013372
Rotational constants in MHz :  1173.776316   499.016428   400.870036

                             ****ORCA TERMINATED NORMALLY****
TOTAL RUN TIME: 0 days 0 hours 3 minutes 12 seconds 900 msec
