                         Program Version 4.2.0 -  RELEASE  -
|  1> # 12mecn.remya.etal.2.mol8,9,10
|  2> ! MP2 def2-TZVP EnGrad TightSCF
|  3>
|  4> %pal
|  5>     nprocs 6
|  6> end
|  7>
|  8> %maxcore 8000
|  9>
| 10> %scf
| 11>     ConvForced true
| 12> end
| 13>
| 14> *xyz 0 1
| 15> C   1.912641000  -2.468050000  -1.750510000
| 16> H   2.876947000  -2.793500000  -2.151200000
| 17> H   1.688016000  -1.463720000  -2.122170000
| 18> H   1.123460000  -3.154780000  -2.069590000
| 19> C   1.977850000  -2.444240000  -0.306900000
| 20> N   2.036566000  -2.426130000   0.858249000
| 21> C   0.923766000   4.000693000  -1.575910000
| 22> H   0.011949000   4.478423000  -1.939550000
| 23> H   0.947903000   2.966558000  -1.929960000
| 24> H   1.805950000   4.519548000  -1.956520000
| 25> C   0.942834000   3.994846000  -0.131200000
| 26> N   0.960035000   3.982544000   1.035639000
| 27> C   4.602033000   0.321019000  -1.784800000
| 28> H   4.827650000  -0.662160000  -2.207910000
| 29> H   5.320558000   1.057980000  -2.148500000
| 30> H   3.601982000   0.643751000  -2.087520000
| 31> C   4.654967000   0.244048000  -0.343060000
| 32> N   4.691648000   0.166590000   0.820757000
| 33> *
| 34>
| 35>                          ****END OF INPUT****

CARTESIAN COORDINATES (ANGSTROEM)
---------------------------------
  C      1.912641   -2.468050   -1.750510
  H      2.876947   -2.793500   -2.151200
  H      1.688016   -1.463720   -2.122170
  H      1.123460   -3.154780   -2.069590
  C      1.977850   -2.444240   -0.306900
  N      2.036566   -2.426130    0.858249
  C      0.923766    4.000693   -1.575910
  H      0.011949    4.478423   -1.939550
  H      0.947903    2.966558   -1.929960
  H      1.805950    4.519548   -1.956520
  C      0.942834    3.994846   -0.131200
  N      0.960035    3.982544    1.035639
  C      4.602033    0.321019   -1.784800
  H      4.827650   -0.662160   -2.207910
  H      5.320558    1.057980   -2.148500
  H      3.601982    0.643751   -2.087520
  C      4.654967    0.244048   -0.343060
  N      4.691648    0.166590    0.820757

 Total Charge           Charge          ....    0
 Multiplicity           Mult            ....    1
 Number of Electrons    NEL             ....   66
 Basis Dimension        Dim             ....  333

ORBITAL ENERGIES
----------------

  NO   OCC          E(Eh)            E(eV)
   0   2.0000     -15.574085      -423.7924
   1   2.0000     -15.572414      -423.7469
   2   2.0000     -15.572310      -423.7441
   3   2.0000     -11.293267      -307.3054
   4   2.0000     -11.292140      -307.2748
   5   2.0000     -11.290082      -307.2188
   6   2.0000     -11.279701      -306.9363
   7   2.0000     -11.276654      -306.8533
   8   2.0000     -11.276364      -306.8455
   9   2.0000      -1.214415       -33.0459
  10   2.0000      -1.212787       -33.0016
  11   2.0000      -1.211481       -32.9661
  12   2.0000      -1.051032       -28.6000
  13   2.0000      -1.048417       -28.5289
  14   2.0000      -1.047963       -28.5165
  15   2.0000      -0.706015       -19.2116
  16   2.0000      -0.704222       -19.1629
  17   2.0000      -0.702987       -19.1293
  18   2.0000      -0.645544       -17.5661
  19   2.0000      -0.642751       -17.4902
  20   2.0000      -0.638755       -17.3814
  21   2.0000      -0.636865       -17.3300
  22   2.0000      -0.635324       -17.2881
  23   2.0000      -0.631829       -17.1930
  24   2.0000      -0.555266       -15.1096
  25   2.0000      -0.553727       -15.0677
  26   2.0000      -0.551094       -14.9960
  27   2.0000      -0.463101       -12.6016
  28   2.0000      -0.458156       -12.4671
  29   2.0000      -0.457618       -12.4524
  30   2.0000      -0.456880       -12.4323
  31   2.0000      -0.454139       -12.3578
  32   2.0000      -0.447362       -12.1733
  33   0.0000       0.076679         2.0866
  34   0.0000       0.115676         3.1477
  35   0.0000       0.135503         3.6872
  36   0.0000       0.145967         3.9720
  37   0.0000       0.152915         4.1610

MULLIKEN ATOMIC CHARGES
-----------------------
   0 C :   -0.281759
   1 H :    0.166448
   2 H :    0.156551
   3 H :    0.183048
   4 C :   -0.156047
   5 N :   -0.068184
   6 C :   -0.282821
   7 H :    0.175900
   8 H :    0.159040
   9 H :    0.172216
  10 C :   -0.143677
  11 N :   -0.080653
  12 C :   -0.283833
  13 H :    0.166012
  14 H :    0.182621
  15 H :    0.154292
  16 C :   -0.152793
  17 N :   -0.066359
Sum of atomic charges:   -0.0000000

LOEWDIN ATOMIC CHARGES
----------------------
   0 C :   -0.288829
   1 H :    0.149692
   2 H :    0.146831
   3 H :    0.153451
   4 C :   -0.225723
   5 N :    0.064598
   6 C :   -0.286043
   7 H :    0.151941
   8 H :    0.148602
   9 H :    0.151031
  10 C :   -0.221180
  11 N :    0.055622
  12 C :   -0.289289
  13 H :    0.149592
  14 H :    0.152058
  15 H :    0.146187
  16 C :   -0.225835
  17 N :    0.067295

  Mayer bond orders larger than 0.100000
B(  0-C ,  1-H ) :   0.9227 B(  0-C ,  2-H ) :   0.9224 B(  0-C ,  3-H ) :   0.9114
B(  0-C ,  4-C ) :   0.8975 B(  4-C ,  5-N ) :   2.8233 B(  6-C ,  7-H ) :   0.9161
B(  6-C ,  8-H ) :   0.9209 B(  6-C ,  9-H ) :   0.9180 B(  6-C , 10-C ) :   0.9007
B( 10-C , 11-N ) :   2.8276 B( 12-C , 13-H ) :   0.9205 B( 12-C , 14-H ) :   0.9125
B( 12-C , 15-H ) :   0.9254 B( 12-C , 16-C ) :   0.8977 B( 16-C , 17-N ) :   2.8185

MP2 TOTAL ENERGY:     -397.444687413 Eh
FINAL SINGLE POINT ENERGY      -397.444687412852

DIPOLE MOMENT
-------------
                                X             Y             Z
Electronic contribution:      0.31564      -0.12836       9.62992
Nuclear contribution   :     -0.44856       0.20072     -13.90882
                        -----------------------------------------
Total Dipole Moment    :     -0.13293       0.07236      -4.27890
                        -----------------------------------------
Magnitude (a.u.)       :      4.28157
Magnitude (Debye)      :     10.88290

Rotational constants in cm-1:     0.041110     0.015646     0.014412
Rotational constants in MHz :  1232.453961   469.066083   432.071138

                             ****ORCA TERMINATED NORMALLY****
TOTAL RUN TIME: 0 days 0 hours 2 minutes 55 seconds 916 msec
