                         Program Version 4.2.0 -  RELEASE  -
|  1> # 12h2o.su.etal.mol0,6,8,11
|  2> ! MP2 def2-TZVP EnGrad TightSCF
|  3>
|  4> %pal
|  5>     nprocs 6
|  6> end
|  7>
|  8> %maxcore 8000
|  9>
| 10> %scf
| 11>     ConvForced true
| 12> end
| 13>
| 14> *xyz 0 1
| 15> O   1.794470000   0.923410000   2.768350000
| 16> H   2.338250000   1.359750000   3.430940000
| 17> H   0.879480000   1.303000000   2.865760000
| 18> O   1.737840000   0.885520000  -0.052730000
| 19> H   2.090180000   1.032320000   0.841890000
| 20> H   0.839590000   1.284090000  -0.017130000
| 21> O   1.752130000   0.741530000  -2.896280000
| 22> H   2.036450000   0.920500000  -1.984040000
| 23> H   0.921210000   1.242140000  -2.984230000
| 24> O  -0.741530000   1.752130000   2.896280000
| 25> H  -0.920500000   2.036450000   1.984040000
| 26> H  -1.242140000   0.921210000   2.984230000
| 27> *
| 28>
| 29>                          ****END OF INPUT****

CARTESIAN COORDINATES (ANGSTROEM)
---------------------------------
  O      1.794470    0.923410    2.768350
  H      2.338250    1.359750    3.430940
  H      0.879480    1.303000    2.865760
  O      1.737840    0.885520   -0.052730
  H      2.090180    1.032320    0.841890
  H      0.839590    1.284090   -0.017130
  O      1.752130    0.741530   -2.896280
  H      2.036450    0.920500   -1.984040
  H      0.921210    1.242140   -2.984230
  O     -0.741530    1.752130    2.896280
  H     -0.920500    2.036450    1.984040
  H     -1.242140    0.921210    2.984230

 Total Charge           Charge          ....    0
 Multiplicity           Mult            ....    1
 Number of Electrons    NEL             ....   40
 Basis Dimension        Dim             ....  172

ORBITAL ENERGIES
----------------

  NO   OCC          E(Eh)            E(eV)
   0   2.0000     -20.622768      -561.1740
   1   2.0000     -20.557808      -559.4064
   2   2.0000     -20.556619      -559.3740
   3   2.0000     -20.523432      -558.4710
   4   2.0000      -1.408146       -38.3176
   5   2.0000      -1.345806       -36.6212
   6   2.0000      -1.334475       -36.3129
   7   2.0000      -1.305025       -35.5115
   8   2.0000      -0.765304       -20.8250
   9   2.0000      -0.727959       -19.8088
  10   2.0000      -0.707652       -19.2562
  11   2.0000      -0.672783       -18.3074
  12   2.0000      -0.645467       -17.5640
  13   2.0000      -0.598636       -16.2897
  14   2.0000      -0.580927       -15.8078
  15   2.0000      -0.547573       -14.9002
  16   2.0000      -0.539287       -14.6747
  17   2.0000      -0.505664       -13.7598
  18   2.0000      -0.501797       -13.6546
  19   2.0000      -0.469783       -12.7834
  20   0.0000       0.076411         2.0792
  21   0.0000       0.136452         3.7130
  22   0.0000       0.150830         4.1043
  23   0.0000       0.167041         4.5454
  24   0.0000       0.220572         6.0021

MULLIKEN ATOMIC CHARGES
-----------------------
   0 O :   -0.732877
   1 H :    0.340480
   2 H :    0.367345
   3 O :   -0.697133
   4 H :    0.380415
   5 H :    0.302782
   6 O :   -0.693710
   7 H :    0.373506
   8 H :    0.310575
   9 O :   -0.672768
  10 H :    0.352328
  11 H :    0.369057
Sum of atomic charges:    0.0000000

LOEWDIN ATOMIC CHARGES
----------------------
   0 O :   -0.337723
   1 H :    0.155754
   2 H :    0.142669
   3 O :   -0.323103
   4 H :    0.155006
   5 H :    0.154851
   6 O :   -0.341288
   7 H :    0.153040
   8 H :    0.153852
   9 O :   -0.265465
  10 H :    0.170858
  11 H :    0.181548

  Mayer bond orders larger than 0.100000
B(  0-O ,  1-H ) :   0.8488 B(  0-O ,  2-H ) :   0.7735 B(  3-O ,  4-H ) :   0.7964
B(  3-O ,  5-H ) :   0.8635 B(  6-O ,  7-H ) :   0.8154 B(  6-O ,  8-H ) :   0.8678
B(  9-O , 10-H ) :   0.8401 B(  9-O , 11-H ) :   0.8300

MP2 TOTAL ENERGY:     -305.271678214 Eh
FINAL SINGLE POINT ENERGY      -305.271678213984

DIPOLE MOMENT
-------------
                                X             Y             Z
Electronic contribution:      0.05913      -0.18598       0.24412
Nuclear contribution   :     -1.78400       1.24378       1.40687
                        -----------------------------------------
Total Dipole Moment    :     -1.72487       1.05780       1.65099
                        -----------------------------------------
Magnitude (a.u.)       :      2.61149
Magnitude (Debye)      :      6.63789

Rotational constants in cm-1:     0.246342     0.038761     0.033677
Rotational constants in MHz :  7385.159463  1162.037813  1009.596775

                             ****ORCA TERMINATED NORMALLY****
TOTAL RUN TIME: 0 days 0 hours 0 minutes 18 seconds 64 msec
