                         Program Version 4.2.0 -  RELEASE  -
|  1> ! MP2 def2-TZVP EnGrad TightSCF FrozenCore
|  2>
|  3> %pal
|  4>     nprocs 12
|  5> end
|  6>
|  7> %maxcore 8000
|  8>
|  9> %scf
| 10>     ConvForced true
| 11> end
| 12>
| 13> *xyz 0 1
| 14> C    -3.702069     2.076689     0.005389
| 15> H    -4.249195     2.405734    -0.881942
| 16> H    -2.707579     2.534037     0.002503
| 17> H    -4.243384     2.404362     0.896784
| 18> C    -3.588057     0.620920     0.003901
| 19> N    -3.497997    -0.536908     0.002768
| 20> C     2.076682     3.702015    -0.005582
| 21> H     2.534058     2.707539    -0.002613
| 22> H     2.405817     4.249273     0.881635
| 23> H     2.404239     4.243214    -0.897090
| 24> C     0.620917     3.587968    -0.003911
| 25> N    -0.536908     3.497872    -0.002632
| 26> C     3.702035    -2.076672     0.005535
| 27> H     4.249284    -2.405801    -0.881689
| 28> H     2.707535    -2.533996     0.002542
| 29> H     4.243209    -2.404290     0.897036
| 30> C     3.588063    -0.620900     0.003919
| 31> N     3.498037     0.536931     0.002683
| 32> C    -2.076683    -3.702023    -0.005287
| 33> H    -2.534050    -2.707543    -0.002411
| 34> H    -2.405648    -4.249114     0.882095
| 35> H    -2.404417    -4.243384    -0.896631
| 36> C    -0.620916    -3.587987    -0.003921
| 37> N     0.536911    -3.497909    -0.002887
| 38> *
| 39>
| 40>                          ****END OF INPUT****

CARTESIAN COORDINATES (ANGSTROEM)
---------------------------------
  C     -3.702069    2.076689    0.005389
  H     -4.249195    2.405734   -0.881942
  H     -2.707579    2.534037    0.002503
  H     -4.243384    2.404362    0.896784
  C     -3.588057    0.620920    0.003901
  N     -3.497997   -0.536908    0.002768
  C      2.076682    3.702015   -0.005582
  H      2.534058    2.707539   -0.002613
  H      2.405817    4.249273    0.881635
  H      2.404239    4.243214   -0.897090
  C      0.620917    3.587968   -0.003911
  N     -0.536908    3.497872   -0.002632
  C      3.702035   -2.076672    0.005535
  H      4.249284   -2.405801   -0.881689
  H      2.707535   -2.533996    0.002542
  H      4.243209   -2.404290    0.897036
  C      3.588063   -0.620900    0.003919
  N      3.498037    0.536931    0.002683
  C     -2.076683   -3.702023   -0.005287
  H     -2.534050   -2.707543   -0.002411
  H     -2.405648   -4.249114    0.882095
  H     -2.404417   -4.243384   -0.896631
  C     -0.620916   -3.587987   -0.003921
  N      0.536911   -3.497909   -0.002887

 Total Charge           Charge          ....    0
 Multiplicity           Mult            ....    1
 Number of Electrons    NEL             ....   88
 Basis Dimension        Dim             ....  444

ORBITAL ENERGIES
----------------

  NO   OCC          E(Eh)            E(eV)
   0   2.0000     -15.566229      -423.5786
   1   2.0000     -15.566229      -423.5786
   2   2.0000     -15.566229      -423.5786
   3   2.0000     -15.566229      -423.5786
   4   2.0000     -11.278951      -306.9159
   5   2.0000     -11.278951      -306.9159
   6   2.0000     -11.278951      -306.9158
   7   2.0000     -11.278950      -306.9158
   8   2.0000     -11.264555      -306.5241
   9   2.0000     -11.264555      -306.5241
  10   2.0000     -11.264555      -306.5241
  11   2.0000     -11.264555      -306.5241
  12   2.0000      -1.214378       -33.0449
  13   2.0000      -1.214056       -33.0362
  14   2.0000      -1.214056       -33.0361
  15   2.0000      -1.213733       -33.0274
  16   2.0000      -1.025201       -27.8971
  17   2.0000      -1.024101       -27.8672
  18   2.0000      -1.024101       -27.8672
  19   2.0000      -1.022994       -27.8371
  20   2.0000      -0.690340       -18.7851
  21   2.0000      -0.685604       -18.6562
  22   2.0000      -0.685604       -18.6562
  23   2.0000      -0.680597       -18.5200
  24   2.0000      -0.615950       -16.7608
  25   2.0000      -0.614384       -16.7182
  26   2.0000      -0.614383       -16.7182
  27   2.0000      -0.613458       -16.6930
  28   2.0000      -0.613081       -16.6828
  29   2.0000      -0.613081       -16.6828
  30   2.0000      -0.612703       -16.6725
  31   2.0000      -0.612587       -16.6693
  32   2.0000      -0.558179       -15.1888
  33   2.0000      -0.553239       -15.0544
  34   2.0000      -0.553239       -15.0544
  35   2.0000      -0.548851       -14.9350
  36   2.0000      -0.458043       -12.4640
  37   2.0000      -0.457442       -12.4476
  38   2.0000      -0.456883       -12.4324
  39   2.0000      -0.456883       -12.4324
  40   2.0000      -0.456331       -12.4174
  41   2.0000      -0.455043       -12.3823
  42   2.0000      -0.455042       -12.3823
  43   2.0000      -0.452071       -12.3015
  44   0.0000       0.128253         3.4899
  45   0.0000       0.138326         3.7640
  46   0.0000       0.138326         3.7640
  47   0.0000       0.144074         3.9204
  48   0.0000       0.176318         4.7979

MULLIKEN ATOMIC CHARGES
-----------------------
   0 C :   -0.274480
   1 H :    0.161302
   2 H :    0.204191
   3 H :    0.161302
   4 C :   -0.104306
   5 N :   -0.148009
   6 C :   -0.274480
   7 H :    0.204191
   8 H :    0.161302
   9 H :    0.161302
  10 C :   -0.104309
  11 N :   -0.148006
  12 C :   -0.274478
  13 H :    0.161302
  14 H :    0.204190
  15 H :    0.161301
  16 C :   -0.104304
  17 N :   -0.148012
  18 C :   -0.274479
  19 H :    0.204191
  20 H :    0.161302
  21 H :    0.161302
  22 C :   -0.104306
  23 N :   -0.148009
Sum of atomic charges:    0.0000000

LOEWDIN ATOMIC CHARGES
----------------------
   0 C :   -0.280040
   1 H :    0.149622
   2 H :    0.154767
   3 H :    0.149627
   4 C :   -0.197914
   5 N :    0.023938
   6 C :   -0.280040
   7 H :    0.154767
   8 H :    0.149622
   9 H :    0.149627
  10 C :   -0.197914
  11 N :    0.023939
  12 C :   -0.280040
  13 H :    0.149622
  14 H :    0.154766
  15 H :    0.149626
  16 C :   -0.197914
  17 N :    0.023938
  18 C :   -0.280039
  19 H :    0.154766
  20 H :    0.149622
  21 H :    0.149627
  22 C :   -0.197913
  23 N :    0.023939

  Mayer bond orders larger than 0.100000
B(  0-C ,  1-H ) :   0.9176 B(  0-C ,  2-H ) :   0.8974 B(  0-C ,  3-H ) :   0.9176
B(  0-C ,  4-C ) :   0.9054 B(  4-C ,  5-N ) :   2.7762 B(  6-C ,  7-H ) :   0.8974
B(  6-C ,  8-H ) :   0.9176 B(  6-C ,  9-H ) :   0.9176 B(  6-C , 10-C ) :   0.9054
B( 10-C , 11-N ) :   2.7762 B( 12-C , 13-H ) :   0.9176 B( 12-C , 14-H ) :   0.8974
B( 12-C , 15-H ) :   0.9176 B( 12-C , 16-C ) :   0.9054 B( 16-C , 17-N ) :   2.7762
B( 18-C , 19-H ) :   0.8974 B( 18-C , 20-H ) :   0.9176 B( 18-C , 21-H ) :   0.9176
B( 18-C , 22-C ) :   0.9054 B( 22-C , 23-N ) :   2.7762

MP2 TOTAL ENERGY:     -529.957415062 Eh
FINAL SINGLE POINT ENERGY      -529.957415062494

DIPOLE MOMENT
-------------
                                X             Y             Z
Electronic contribution:      0.00009      -0.00002      -0.00015
Nuclear contribution   :     -0.00013       0.00003       0.00022
                        -----------------------------------------
Total Dipole Moment    :     -0.00004       0.00001       0.00007
                        -----------------------------------------
Magnitude (a.u.)       :      0.00008
Magnitude (Debye)      :      0.00021

Rotational constants in cm-1:     0.013680     0.013679     0.006875
Rotational constants in MHz :   410.114475   410.099178   206.120791

                             ****ORCA TERMINATED NORMALLY****
TOTAL RUN TIME: 0 days 0 hours 4 minutes 33 seconds 353 msec
