                         Program Version 4.2.0 -  RELEASE  -
|  1> # 12h2o.su.etal.mol2,4,7,8,9,10
|  2> ! MP2 def2-TZVP EnGrad TightSCF
|  3>
|  4> %pal
|  5>     nprocs 6
|  6> end
|  7>
|  8> %maxcore 8000
|  9>
| 10> %scf
| 11>     ConvForced true
| 12> end
| 13>
| 14> *xyz 0 1
| 15> O   0.923410000  -1.794470000  -2.768350000
| 16> H   1.359750000  -2.338250000  -3.430940000
| 17> H   1.303000000  -0.879480000  -2.865760000
| 18> O  -0.885520000   1.737840000   0.052730000
| 19> H  -1.032320000   2.090180000  -0.841890000
| 20> H  -1.284090000   0.839590000   0.017130000
| 21> O  -1.737840000  -0.885520000  -0.052730000
| 22> H  -2.090180000  -1.032320000   0.841890000
| 23> H  -0.839590000  -1.284090000  -0.017130000
| 24> O   1.752130000   0.741530000  -2.896280000
| 25> H   2.036450000   0.920500000  -1.984040000
| 26> H   0.921210000   1.242140000  -2.984230000
| 27> O   0.741530000  -1.752130000   2.896280000
| 28> H   0.920500000  -2.036450000   1.984040000
| 29> H   1.242140000  -0.921210000   2.984230000
| 30> O  -0.923410000   1.794470000  -2.768350000
| 31> H  -1.359750000   2.338250000  -3.430940000
| 32> H  -1.303000000   0.879480000  -2.865760000
| 33> *
| 34>
| 35>                          ****END OF INPUT****

CARTESIAN COORDINATES (ANGSTROEM)
---------------------------------
  O      0.923410   -1.794470   -2.768350
  H      1.359750   -2.338250   -3.430940
  H      1.303000   -0.879480   -2.865760
  O     -0.885520    1.737840    0.052730
  H     -1.032320    2.090180   -0.841890
  H     -1.284090    0.839590    0.017130
  O     -1.737840   -0.885520   -0.052730
  H     -2.090180   -1.032320    0.841890
  H     -0.839590   -1.284090   -0.017130
  O      1.752130    0.741530   -2.896280
  H      2.036450    0.920500   -1.984040
  H      0.921210    1.242140   -2.984230
  O      0.741530   -1.752130    2.896280
  H      0.920500   -2.036450    1.984040
  H      1.242140   -0.921210    2.984230
  O     -0.923410    1.794470   -2.768350
  H     -1.359750    2.338250   -3.430940
  H     -1.303000    0.879480   -2.865760

 Total Charge           Charge          ....    0
 Multiplicity           Mult            ....    1
 Number of Electrons    NEL             ....   60
 Basis Dimension        Dim             ....  258

ORBITAL ENERGIES
----------------

  NO   OCC          E(Eh)            E(eV)
   0   2.0000     -20.611485      -560.8670
   1   2.0000     -20.587347      -560.2102
   2   2.0000     -20.574131      -559.8506
   3   2.0000     -20.570485      -559.7514
   4   2.0000     -20.527065      -558.5698
   5   2.0000     -20.511091      -558.1352
   6   2.0000      -1.392193       -37.8835
   7   2.0000      -1.367874       -37.2217
   8   2.0000      -1.362604       -37.0783
   9   2.0000      -1.349490       -36.7215
  10   2.0000      -1.308736       -35.6125
  11   2.0000      -1.295547       -35.2536
  12   2.0000      -0.757815       -20.6212
  13   2.0000      -0.725819       -19.7506
  14   2.0000      -0.724610       -19.7177
  15   2.0000      -0.712239       -19.3810
  16   2.0000      -0.695906       -18.9366
  17   2.0000      -0.681202       -18.5365
  18   2.0000      -0.633546       -17.2397
  19   2.0000      -0.610530       -16.6134
  20   2.0000      -0.600060       -16.3285
  21   2.0000      -0.586890       -15.9701
  22   2.0000      -0.568622       -15.4730
  23   2.0000      -0.553668       -15.0661
  24   2.0000      -0.536826       -14.6078
  25   2.0000      -0.514219       -13.9926
  26   2.0000      -0.508968       -13.8497
  27   2.0000      -0.507552       -13.8112
  28   2.0000      -0.477947       -13.0056
  29   2.0000      -0.461908       -12.5692
  30   0.0000       0.088995         2.4217
  31   0.0000       0.109848         2.9891
  32   0.0000       0.148225         4.0334
  33   0.0000       0.156735         4.2650
  34   0.0000       0.173328         4.7165

MULLIKEN ATOMIC CHARGES
-----------------------
   0 O :   -0.742493
   1 H :    0.328689
   2 H :    0.365230
   3 O :   -0.733784
   4 H :    0.354147
   5 H :    0.339952
   6 O :   -0.685788
   7 H :    0.361436
   8 H :    0.356220
   9 O :   -0.701446
  10 H :    0.355880
  11 H :    0.374973
  12 O :   -0.674262
  13 H :    0.331235
  14 H :    0.346422
  15 O :   -0.721448
  16 H :    0.363091
  17 H :    0.381947
Sum of atomic charges:   -0.0000000

LOEWDIN ATOMIC CHARGES
----------------------
   0 O :   -0.378012
   1 H :    0.150336
   2 H :    0.140830
   3 O :   -0.371241
   4 H :    0.140803
   5 H :    0.135445
   6 O :   -0.290747
   7 H :    0.174442
   8 H :    0.177014
   9 O :   -0.282206
  10 H :    0.172066
  11 H :    0.153223
  12 O :   -0.329430
  13 H :    0.160966
  14 H :    0.171091
  15 O :   -0.287791
  16 H :    0.167531
  17 H :    0.195680

  Mayer bond orders larger than 0.100000
B(  0-O ,  1-H ) :   0.8585 B(  0-O ,  2-H ) :   0.7734 B(  3-O ,  4-H ) :   0.8356
B(  3-O ,  5-H ) :   0.8080 B(  6-O ,  7-H ) :   0.8348 B(  6-O ,  8-H ) :   0.8303
B(  9-O , 10-H ) :   0.8373 B(  9-O , 11-H ) :   0.8017 B( 12-O , 13-H ) :   0.8550
B( 12-O , 14-H ) :   0.8471 B( 15-O , 16-H ) :   0.8323 B( 15-O , 17-H ) :   0.8112

MP2 TOTAL ENERGY:     -457.914357468 Eh
FINAL SINGLE POINT ENERGY      -457.914357468286

DIPOLE MOMENT
-------------
                                X             Y             Z
Electronic contribution:     -0.17907       0.14093       0.09800
Nuclear contribution   :      0.11114       0.11229      -1.26519
                        -----------------------------------------
Total Dipole Moment    :     -0.06793       0.25321      -1.16719
                        -----------------------------------------
Magnitude (a.u.)       :      1.19627
Magnitude (Debye)      :      3.04067

Rotational constants in cm-1:     0.046989     0.026038     0.020996
Rotational constants in MHz :  1408.688146   780.603345   629.459187

                             ****ORCA TERMINATED NORMALLY****
TOTAL RUN TIME: 0 days 0 hours 0 minutes 57 seconds 981 msec
