                         Program Version 4.2.0 -  RELEASE  -
|  1> ! MP2 def2-TZVP EnGrad TightSCF FrozenCore
|  2>
|  3> %pal
|  4>     nprocs 12
|  5> end
|  6>
|  7> %maxcore 8000
|  8>
|  9> %scf
| 10>     ConvForced true
| 11> end
| 12>
| 13> *xyz 0 1
| 14> C    -2.661601     0.002422    -1.723468
| 15> H    -3.546118     0.474788    -2.158183
| 16> H    -2.602512    -1.041532    -2.040644
| 17> H    -1.759494     0.521131    -2.061085
| 18> C    -2.722996     0.068570    -0.266218
| 19> N    -2.760666     0.122550     0.894426
| 20> C     2.661599    -0.002452    -1.723470
| 21> H     3.546103    -0.474847    -2.158179
| 22> H     2.602532     1.041497    -2.040666
| 23> H     1.759480    -0.521147    -2.061074
| 24> C     2.722997    -0.068573    -0.266219
| 25> N     2.760670    -0.122529     0.894426
| 26> C     0.073254     1.873965     1.725621
| 27> H     0.929799     1.298230     2.090055
| 28> H    -0.858982     1.423569     2.079679
| 29> H     0.144127     2.899184     2.098156
| 30> C     0.083252     1.871742     0.265471
| 31> N     0.096138     1.867371    -0.896815
| 32> C    -0.073252    -1.873938     1.725650
| 33> H    -0.929794    -1.298194     2.090075
| 34> H     0.858987    -1.423542     2.079698
| 35> H    -0.144130    -2.899151     2.098202
| 36> C    -0.083253    -1.871739     0.265501
| 37> N    -0.096142    -1.867388    -0.896785
| 38> *
| 39>
| 40>                          ****END OF INPUT****

CARTESIAN COORDINATES (ANGSTROEM)
---------------------------------
  C     -2.661601    0.002422   -1.723468
  H     -3.546118    0.474788   -2.158183
  H     -2.602512   -1.041532   -2.040644
  H     -1.759494    0.521131   -2.061085
  C     -2.722996    0.068570   -0.266218
  N     -2.760666    0.122550    0.894426
  C      2.661599   -0.002452   -1.723470
  H      3.546103   -0.474847   -2.158179
  H      2.602532    1.041497   -2.040666
  H      1.759480   -0.521147   -2.061074
  C      2.722997   -0.068573   -0.266219
  N      2.760670   -0.122529    0.894426
  C      0.073254    1.873965    1.725621
  H      0.929799    1.298230    2.090055
  H     -0.858982    1.423569    2.079679
  H      0.144127    2.899184    2.098156
  C      0.083252    1.871742    0.265471
  N      0.096138    1.867371   -0.896815
  C     -0.073252   -1.873938    1.725650
  H     -0.929794   -1.298194    2.090075
  H      0.858987   -1.423542    2.079698
  H     -0.144130   -2.899151    2.098202
  C     -0.083253   -1.871739    0.265501
  N     -0.096142   -1.867388   -0.896785

 Total Charge           Charge          ....    0
 Multiplicity           Mult            ....    1
 Number of Electrons    NEL             ....   88
 Basis Dimension        Dim             ....  444

ORBITAL ENERGIES
----------------

  NO   OCC          E(Eh)            E(eV)
   0   2.0000     -15.567555      -423.6147
   1   2.0000     -15.567554      -423.6147
   2   2.0000     -15.566968      -423.5987
   3   2.0000     -15.566968      -423.5987
   4   2.0000     -11.282336      -307.0080
   5   2.0000     -11.282336      -307.0080
   6   2.0000     -11.281637      -306.9889
   7   2.0000     -11.281636      -306.9889
   8   2.0000     -11.268696      -306.6368
   9   2.0000     -11.268695      -306.6368
  10   2.0000     -11.265285      -306.5440
  11   2.0000     -11.265285      -306.5440
  12   2.0000      -1.220806       -33.2198
  13   2.0000      -1.216736       -33.1091
  14   2.0000      -1.216037       -33.0900
  15   2.0000      -1.213329       -33.0164
  16   2.0000      -1.030817       -28.0500
  17   2.0000      -1.026437       -27.9308
  18   2.0000      -1.024919       -27.8895
  19   2.0000      -1.024039       -27.8655
  20   2.0000      -0.691026       -18.8038
  21   2.0000      -0.685431       -18.6515
  22   2.0000      -0.684790       -18.6341
  23   2.0000      -0.682568       -18.5736
  24   2.0000      -0.629921       -17.1410
  25   2.0000      -0.629152       -17.1201
  26   2.0000      -0.621279       -16.9059
  27   2.0000      -0.615573       -16.7506
  28   2.0000      -0.613875       -16.7044
  29   2.0000      -0.609161       -16.5761
  30   2.0000      -0.606772       -16.5111
  31   2.0000      -0.605008       -16.4631
  32   2.0000      -0.560119       -15.2416
  33   2.0000      -0.555915       -15.1272
  34   2.0000      -0.555273       -15.1098
  35   2.0000      -0.554315       -15.0837
  36   2.0000      -0.468979       -12.7616
  37   2.0000      -0.463457       -12.6113
  38   2.0000      -0.461400       -12.5553
  39   2.0000      -0.459125       -12.4934
  40   2.0000      -0.456927       -12.4336
  41   2.0000      -0.454565       -12.3693
  42   2.0000      -0.453412       -12.3380
  43   2.0000      -0.451398       -12.2832
  44   0.0000       0.130619         3.5543
  45   0.0000       0.151418         4.1203
  46   0.0000       0.151510         4.1228
  47   0.0000       0.161309         4.3894
  48   0.0000       0.162472         4.4211

MULLIKEN ATOMIC CHARGES
-----------------------
   0 C :   -0.273292
   1 H :    0.167825
   2 H :    0.176793
   3 H :    0.197257
   4 C :   -0.093882
   5 N :   -0.175000
   6 C :   -0.273290
   7 H :    0.167825
   8 H :    0.176792
   9 H :    0.197257
  10 C :   -0.093883
  11 N :   -0.175000
  12 C :   -0.300242
  13 H :    0.190815
  14 H :    0.193537
  15 H :    0.173394
  16 C :   -0.088722
  17 N :   -0.168482
  18 C :   -0.300242
  19 H :    0.190814
  20 H :    0.193537
  21 H :    0.173394
  22 C :   -0.088723
  23 N :   -0.168482
Sum of atomic charges:   -0.0000000

LOEWDIN ATOMIC CHARGES
----------------------
   0 C :   -0.282822
   1 H :    0.147450
   2 H :    0.153394
   3 H :    0.156652
   4 C :   -0.200286
   5 N :    0.020977
   6 C :   -0.282821
   7 H :    0.147450
   8 H :    0.153394
   9 H :    0.156652
  10 C :   -0.200286
  11 N :    0.020977
  12 C :   -0.283205
  13 H :    0.152567
  14 H :    0.152637
  15 H :    0.149972
  16 C :   -0.201323
  17 N :    0.033987
  18 C :   -0.283205
  19 H :    0.152567
  20 H :    0.152637
  21 H :    0.149972
  22 C :   -0.201323
  23 N :    0.033987

  Mayer bond orders larger than 0.100000
B(  0-C ,  1-H ) :   0.9105 B(  0-C ,  2-H ) :   0.9124 B(  0-C ,  3-H ) :   0.9046
B(  0-C ,  4-C ) :   0.9064 B(  4-C ,  5-N ) :   2.7402 B(  6-C ,  7-H ) :   0.9105
B(  6-C ,  8-H ) :   0.9124 B(  6-C ,  9-H ) :   0.9046 B(  6-C , 10-C ) :   0.9064
B( 10-C , 11-N ) :   2.7402 B( 12-C , 13-H ) :   0.9096 B( 12-C , 14-H ) :   0.9095
B( 12-C , 15-H ) :   0.9082 B( 12-C , 16-C ) :   0.8936 B( 16-C , 17-N ) :   2.7323
B( 18-C , 19-H ) :   0.9096 B( 18-C , 20-H ) :   0.9095 B( 18-C , 21-H ) :   0.9082
B( 18-C , 22-C ) :   0.8936 B( 22-C , 23-N ) :   2.7323

MP2 TOTAL ENERGY:     -529.967492410 Eh
FINAL SINGLE POINT ENERGY      -529.967492410018

DIPOLE MOMENT
-------------
                                X             Y             Z
Electronic contribution:      0.00000       0.00001      -0.11023
Nuclear contribution   :     -0.00000      -0.00001       0.01611
                        -----------------------------------------
Total Dipole Moment    :     -0.00000      -0.00001      -0.09412
                        -----------------------------------------
Magnitude (a.u.)       :      0.09412
Magnitude (Debye)      :      0.23923

Rotational constants in cm-1:     0.031315     0.019720     0.018623
Rotational constants in MHz :   938.797713   591.194721   558.293339

                             ****ORCA TERMINATED NORMALLY****
TOTAL RUN TIME: 0 days 0 hours 8 minutes 56 seconds 747 msec
