                         Program Version 4.2.0 -  RELEASE  -
|  1> # 12meoh.boyd.etal.mol2,5,10
|  2> ! MP2 def2-TZVP EnGrad TightSCF
|  3>
|  4> %pal
|  5>     nprocs 6
|  6> end
|  7>
|  8> %maxcore 8000
|  9>
| 10> %scf
| 11>     ConvForced true
| 12> end
| 13>
| 14> *xyz 0 1
| 15> O  -3.839777402   2.233595098   0.660436763
| 16> H  -2.958345897   1.907036203   0.973588449
| 17> C  -3.600368059   3.168790682  -0.390480452
| 18> H  -4.551709193   3.344148967  -0.901254863
| 19> H  -2.868237594   2.789240199  -1.113617525
| 20> H  -3.243594915   4.128998607   0.009549480
| 21> O  -0.662721750   1.449094618  -1.383082065
| 22> H   0.064188300   2.119867608  -1.465650660
| 23> C  -0.353319239   0.341218776  -2.229326771
| 24> H  -1.072358530  -0.454743281  -2.019906495
| 25> H   0.657636746  -0.044472139  -2.042736771
| 26> H  -0.434616607   0.624733901  -3.287793021
| 27> O  -5.201143618   0.064582726  -0.172223772
| 28> H  -4.686891530   0.869258890   0.107806143
| 29> C  -6.513192168   0.171391798   0.359883449
| 30> H  -7.049381312  -0.749234190   0.111361174
| 31> H  -7.057741163   1.017801101  -0.081819420
| 32> H  -6.514770575   0.292264928   1.453058834
| 33> *
| 34>
| 35>                          ****END OF INPUT****

CARTESIAN COORDINATES (ANGSTROEM)
---------------------------------
  O     -3.839777    2.233595    0.660437
  H     -2.958346    1.907036    0.973588
  C     -3.600368    3.168791   -0.390480
  H     -4.551709    3.344149   -0.901255
  H     -2.868238    2.789240   -1.113618
  H     -3.243595    4.128999    0.009549
  O     -0.662722    1.449095   -1.383082
  H      0.064188    2.119868   -1.465651
  C     -0.353319    0.341219   -2.229327
  H     -1.072359   -0.454743   -2.019906
  H      0.657637   -0.044472   -2.042737
  H     -0.434617    0.624734   -3.287793
  O     -5.201144    0.064583   -0.172224
  H     -4.686892    0.869259    0.107806
  C     -6.513192    0.171392    0.359883
  H     -7.049381   -0.749234    0.111361
  H     -7.057741    1.017801   -0.081819
  H     -6.514771    0.292265    1.453059

 Total Charge           Charge          ....    0
 Multiplicity           Mult            ....    1
 Number of Electrons    NEL             ....   54
 Basis Dimension        Dim             ....  258

ORBITAL ENERGIES
----------------

  NO   OCC          E(Eh)            E(eV)
   0   2.0000     -20.575287      -559.8820
   1   2.0000     -20.570273      -559.7456
   2   2.0000     -20.507118      -558.0271
   3   2.0000     -11.278961      -306.9161
   4   2.0000     -11.273559      -306.7691
   5   2.0000     -11.242493      -305.9238
   6   2.0000      -1.368826       -37.2476
   7   2.0000      -1.358261       -36.9602
   8   2.0000      -1.304660       -35.5016
   9   2.0000      -0.928814       -25.2743
  10   2.0000      -0.926357       -25.2075
  11   2.0000      -0.888639       -24.1811
  12   2.0000      -0.701192       -19.0804
  13   2.0000      -0.692039       -18.8313
  14   2.0000      -0.664276       -18.0759
  15   2.0000      -0.626441       -17.0463
  16   2.0000      -0.619606       -16.8603
  17   2.0000      -0.600727       -16.3466
  18   2.0000      -0.596707       -16.2372
  19   2.0000      -0.583752       -15.8847
  20   2.0000      -0.555511       -15.1162
  21   2.0000      -0.517131       -14.0719
  22   2.0000      -0.508730       -13.8432
  23   2.0000      -0.477432       -12.9916
  24   2.0000      -0.460214       -12.5231
  25   2.0000      -0.445488       -12.1223
  26   2.0000      -0.409734       -11.1494
  27   0.0000       0.117040         3.1848
  28   0.0000       0.149640         4.0719
  29   0.0000       0.169196         4.6041
  30   0.0000       0.170771         4.6469
  31   0.0000       0.183233         4.9860

MULLIKEN ATOMIC CHARGES
-----------------------
   0 O :   -0.519358
   1 H :    0.346482
   2 C :   -0.195249
   3 H :    0.136434
   4 H :    0.146478
   5 H :    0.115103
   6 O :   -0.510351
   7 H :    0.325168
   8 C :   -0.174394
   9 H :    0.146054
  10 H :    0.113643
  11 H :    0.114274
  12 O :   -0.536433
  13 H :    0.341397
  14 C :   -0.156685
  15 H :    0.116688
  16 H :    0.091231
  17 H :    0.099517
Sum of atomic charges:   -0.0000000

LOEWDIN ATOMIC CHARGES
----------------------
   0 O :   -0.076834
   1 H :    0.198619
   2 C :   -0.375920
   3 H :    0.112055
   4 H :    0.103786
   5 H :    0.100911
   6 O :   -0.112271
   7 H :    0.189289
   8 C :   -0.372698
   9 H :    0.114935
  10 H :    0.098034
  11 H :    0.097737
  12 O :   -0.124715
  13 H :    0.157573
  14 C :   -0.396797
  15 H :    0.104067
  16 H :    0.089839
  17 H :    0.092391

  Mayer bond orders larger than 0.100000
B(  0-O ,  1-H ) :   0.8258 B(  0-O ,  2-C ) :   0.8666 B(  0-O , 13-H ) :   0.1067
B(  2-C ,  3-H ) :   0.9407 B(  2-C ,  4-H ) :   0.9312 B(  2-C ,  5-H ) :   0.9347
B(  6-O ,  7-H ) :   0.8392 B(  6-O ,  8-C ) :   0.9007 B(  8-C ,  9-H ) :   0.9370
B(  8-C , 10-H ) :   0.9357 B(  8-C , 11-H ) :   0.9396 B( 12-O , 13-H ) :   0.7841
B( 12-O , 14-C ) :   0.9458 B( 14-C , 15-H ) :   0.9415 B( 14-C , 16-H ) :   0.9368
B( 14-C , 17-H ) :   0.9414

MP2 TOTAL ENERGY:     -346.534321459 Eh
FINAL SINGLE POINT ENERGY      -346.534321458838

DIPOLE MOMENT
-------------
                                X             Y             Z
Electronic contribution:      1.07352       0.09274       1.60076
Nuclear contribution   :      0.33917       0.79450      -1.90650
                        -----------------------------------------
Total Dipole Moment    :      1.41268       0.88724      -0.30574
                        -----------------------------------------
Magnitude (a.u.)       :      1.69598
Magnitude (Debye)      :      4.31083

Rotational constants in cm-1:     0.105601     0.029123     0.023943
Rotational constants in MHz :  3165.850540   873.075001   717.797884

                             ****ORCA TERMINATED NORMALLY****
TOTAL RUN TIME: 0 days 0 hours 1 minutes 17 seconds 455 msec
