                         Program Version 4.2.0 -  RELEASE  -
|  1> # 12h2o.su.etal.mol1,4,5,10,11
|  2> ! MP2 def2-TZVP EnGrad TightSCF
|  3>
|  4> %pal
|  5>     nprocs 6
|  6> end
|  7>
|  8> %maxcore 8000
|  9>
| 10> %scf
| 11>     ConvForced true
| 12> end
| 13>
| 14> *xyz 0 1
| 15> O  -1.794470000  -0.923410000   2.768350000
| 16> H  -2.338250000  -1.359750000   3.430940000
| 17> H  -0.879480000  -1.303000000   2.865760000
| 18> O  -0.885520000   1.737840000   0.052730000
| 19> H  -1.032320000   2.090180000  -0.841890000
| 20> H  -1.284090000   0.839590000   0.017130000
| 21> O   0.885520000  -1.737840000   0.052730000
| 22> H   1.284090000  -0.839590000   0.017130000
| 23> H   1.032320000  -2.090180000  -0.841890000
| 24> O  -0.923410000   1.794470000  -2.768350000
| 25> H  -1.359750000   2.338250000  -3.430940000
| 26> H  -1.303000000   0.879480000  -2.865760000
| 27> O  -0.741530000   1.752130000   2.896280000
| 28> H  -0.920500000   2.036450000   1.984040000
| 29> H  -1.242140000   0.921210000   2.984230000
| 30> *
| 31>
| 32>                          ****END OF INPUT****

CARTESIAN COORDINATES (ANGSTROEM)
---------------------------------
  O     -1.794470   -0.923410    2.768350
  H     -2.338250   -1.359750    3.430940
  H     -0.879480   -1.303000    2.865760
  O     -0.885520    1.737840    0.052730
  H     -1.032320    2.090180   -0.841890
  H     -1.284090    0.839590    0.017130
  O      0.885520   -1.737840    0.052730
  H      1.284090   -0.839590    0.017130
  H      1.032320   -2.090180   -0.841890
  O     -0.923410    1.794470   -2.768350
  H     -1.359750    2.338250   -3.430940
  H     -1.303000    0.879480   -2.865760
  O     -0.741530    1.752130    2.896280
  H     -0.920500    2.036450    1.984040
  H     -1.242140    0.921210    2.984230

 Total Charge           Charge          ....    0
 Multiplicity           Mult            ....    1
 Number of Electrons    NEL             ....   50
 Basis Dimension        Dim             ....  215

ORBITAL ENERGIES
----------------

  NO   OCC          E(Eh)            E(eV)
   0   2.0000     -20.599528      -560.5417
   1   2.0000     -20.573997      -559.8469
   2   2.0000     -20.567419      -559.6679
   3   2.0000     -20.547720      -559.1319
   4   2.0000     -20.488806      -557.5287
   5   2.0000      -1.377406       -37.4811
   6   2.0000      -1.351684       -36.7812
   7   2.0000      -1.343406       -36.5559
   8   2.0000      -1.328929       -36.1620
   9   2.0000      -1.274191       -34.6725
  10   2.0000      -0.744350       -20.2548
  11   2.0000      -0.718641       -19.5552
  12   2.0000      -0.705328       -19.1930
  13   2.0000      -0.698068       -18.9954
  14   2.0000      -0.651335       -17.7237
  15   2.0000      -0.615335       -16.7441
  16   2.0000      -0.592139       -16.1129
  17   2.0000      -0.583531       -15.8787
  18   2.0000      -0.572988       -15.5918
  19   2.0000      -0.540093       -14.6967
  20   2.0000      -0.523253       -14.2384
  21   2.0000      -0.510665       -13.8959
  22   2.0000      -0.502334       -13.6692
  23   2.0000      -0.489804       -13.3282
  24   2.0000      -0.439035       -11.9468
  25   0.0000       0.090280         2.4566
  26   0.0000       0.120672         3.2837
  27   0.0000       0.138511         3.7691
  28   0.0000       0.171303         4.6614
  29   0.0000       0.186487         5.0746

MULLIKEN ATOMIC CHARGES
-----------------------
   0 O :   -0.697620
   1 H :    0.347649
   2 H :    0.367939
   3 O :   -0.710886
   4 H :    0.370188
   5 H :    0.335463
   6 O :   -0.687294
   7 H :    0.353049
   8 H :    0.334871
   9 O :   -0.692706
  10 H :    0.354427
  11 H :    0.351005
  12 O :   -0.730601
  13 H :    0.365661
  14 H :    0.338856
Sum of atomic charges:   -0.0000000

LOEWDIN ATOMIC CHARGES
----------------------
   0 O :   -0.312483
   1 H :    0.161144
   2 H :    0.190465
   3 O :   -0.325423
   4 H :    0.151308
   5 H :    0.166694
   6 O :   -0.339860
   7 H :    0.176799
   8 H :    0.164225
   9 O :   -0.310044
  10 H :    0.164496
  11 H :    0.184015
  12 O :   -0.359456
  13 H :    0.148850
  14 H :    0.139272

  Mayer bond orders larger than 0.100000
B(  0-O ,  1-H ) :   0.8444 B(  0-O ,  2-H ) :   0.8243 B(  3-O ,  4-H ) :   0.8117
B(  3-O ,  5-H ) :   0.8433 B(  6-O ,  7-H ) :   0.8375 B(  6-O ,  8-H ) :   0.8539
B(  9-O , 10-H ) :   0.8406 B(  9-O , 11-H ) :   0.8367 B( 12-O , 13-H ) :   0.8247
B( 12-O , 14-H ) :   0.8332

MP2 TOTAL ENERGY:     -381.587190463 Eh
FINAL SINGLE POINT ENERGY      -381.587190463286

DIPOLE MOMENT
-------------
                                X             Y             Z
Electronic contribution:      0.13282       0.11712      -0.00218
Nuclear contribution   :     -0.93582      -1.44310      -2.23466
                        -----------------------------------------
Total Dipole Moment    :     -0.80300      -1.32597      -2.23684
                        -----------------------------------------
Magnitude (a.u.)       :      2.72148
Magnitude (Debye)      :      6.91746

Rotational constants in cm-1:     0.065887     0.035177     0.026137
Rotational constants in MHz :  1975.249608  1054.570960   783.555421

                             ****ORCA TERMINATED NORMALLY****
TOTAL RUN TIME: 0 days 0 hours 0 minutes 27 seconds 954 msec
