                         Program Version 4.2.0 -  RELEASE  -
|  1> # 12mecn.remya.etal.2.mol0,9,11
|  2> ! MP2 def2-TZVP EnGrad TightSCF
|  3>
|  4> %pal
|  5>     nprocs 6
|  6> end
|  7>
|  8> %maxcore 8000
|  9>
| 10> %scf
| 11>     ConvForced true
| 12> end
| 13>
| 14> *xyz 0 1
| 15> C  -0.869520000  -3.929380000   1.700199000
| 16> H  -0.057420000  -3.268850000   2.015352000
| 17> H  -0.697530000  -4.930670000   2.101524000
| 18> H  -1.821490000  -3.546590000   2.077146000
| 19> C  -0.916080000  -3.969960000   0.256749000
| 20> N  -0.955390000  -3.995980000  -0.909290000
| 21> C   0.923766000   4.000693000  -1.575910000
| 22> H   0.011949000   4.478423000  -1.939550000
| 23> H   0.947903000   2.966558000  -1.929960000
| 24> H   1.805950000   4.519548000  -1.956520000
| 25> C   0.942834000   3.994846000  -0.131200000
| 26> N   0.960035000   3.982544000   1.035639000
| 27> C   4.214163000   3.378139000   1.593627000
| 28> H   3.242643000   3.657109000   2.012358000
| 29> H   4.969258000   4.086643000   1.941290000
| 30> H   4.482966000   2.372549000   1.931698000
| 31> C   4.130759000   3.388436000   0.150192000
| 32> N   4.050180000   3.381449000  -1.013420000
| 33> *
| 34>
| 35>                          ****END OF INPUT****

CARTESIAN COORDINATES (ANGSTROEM)
---------------------------------
  C     -0.869520   -3.929380    1.700199
  H     -0.057420   -3.268850    2.015352
  H     -0.697530   -4.930670    2.101524
  H     -1.821490   -3.546590    2.077146
  C     -0.916080   -3.969960    0.256749
  N     -0.955390   -3.995980   -0.909290
  C      0.923766    4.000693   -1.575910
  H      0.011949    4.478423   -1.939550
  H      0.947903    2.966558   -1.929960
  H      1.805950    4.519548   -1.956520
  C      0.942834    3.994846   -0.131200
  N      0.960035    3.982544    1.035639
  C      4.214163    3.378139    1.593627
  H      3.242643    3.657109    2.012358
  H      4.969258    4.086643    1.941290
  H      4.482966    2.372549    1.931698
  C      4.130759    3.388436    0.150192
  N      4.050180    3.381449   -1.013420

 Total Charge           Charge          ....    0
 Multiplicity           Mult            ....    1
 Number of Electrons    NEL             ....   66
 Basis Dimension        Dim             ....  333

ORBITAL ENERGIES
----------------

  NO   OCC          E(Eh)            E(eV)
   0   2.0000     -15.573207      -423.7685
   1   2.0000     -15.571491      -423.7218
   2   2.0000     -15.570617      -423.6980
   3   2.0000     -11.284867      -307.0768
   4   2.0000     -11.283043      -307.0272
   5   2.0000     -11.283034      -307.0270
   6   2.0000     -11.280210      -306.9501
   7   2.0000     -11.273052      -306.7554
   8   2.0000     -11.271100      -306.7022
   9   2.0000      -1.218370       -33.1535
  10   2.0000      -1.214454       -33.0470
  11   2.0000      -1.213705       -33.0266
  12   2.0000      -1.044243       -28.4153
  13   2.0000      -1.036664       -28.2091
  14   2.0000      -1.033550       -28.1243
  15   2.0000      -0.700128       -19.0515
  16   2.0000      -0.695430       -18.9236
  17   2.0000      -0.690929       -18.8011
  18   2.0000      -0.632538       -17.2122
  19   2.0000      -0.631769       -17.1913
  20   2.0000      -0.631353       -17.1800
  21   2.0000      -0.623323       -16.9615
  22   2.0000      -0.618306       -16.8250
  23   2.0000      -0.615750       -16.7554
  24   2.0000      -0.559267       -15.2184
  25   2.0000      -0.556114       -15.1326
  26   2.0000      -0.555909       -15.1271
  27   2.0000      -0.462709       -12.5909
  28   2.0000      -0.458909       -12.4876
  29   2.0000      -0.457601       -12.4519
  30   2.0000      -0.457506       -12.4494
  31   2.0000      -0.457191       -12.4408
  32   2.0000      -0.453441       -12.3388
  33   0.0000       0.119214         3.2440
  34   0.0000       0.126650         3.4463
  35   0.0000       0.144606         3.9349
  36   0.0000       0.170545         4.6408
  37   0.0000       0.171130         4.6567

MULLIKEN ATOMIC CHARGES
-----------------------
   0 C :   -0.278289
   1 H :    0.172140
   2 H :    0.171969
   3 H :    0.172444
   4 C :   -0.145893
   5 N :   -0.092372
   6 C :   -0.267835
   7 H :    0.170379
   8 H :    0.172855
   9 H :    0.190381
  10 C :   -0.113206
  11 N :   -0.151921
  12 C :   -0.288107
  13 H :    0.205167
  14 H :    0.166945
  15 H :    0.165297
  16 C :   -0.109474
  17 N :   -0.140481
Sum of atomic charges:    0.0000000

LOEWDIN ATOMIC CHARGES
----------------------
   0 C :   -0.283498
   1 H :    0.152883
   2 H :    0.151571
   3 H :    0.153085
   4 C :   -0.219702
   5 N :    0.045661
   6 C :   -0.283271
   7 H :    0.149072
   8 H :    0.157328
   9 H :    0.156452
  10 C :   -0.208822
  11 N :    0.026883
  12 C :   -0.282899
  13 H :    0.157005
  14 H :    0.150036
  15 H :    0.152320
  16 C :   -0.208994
  17 N :    0.034889

  Mayer bond orders larger than 0.100000
B(  0-C ,  1-H ) :   0.9164 B(  0-C ,  2-H ) :   0.9167 B(  0-C ,  3-H ) :   0.9164
B(  0-C ,  4-C ) :   0.9016 B(  4-C ,  5-N ) :   2.8371 B(  6-C ,  7-H ) :   0.9119
B(  6-C ,  8-H ) :   0.9142 B(  6-C ,  9-H ) :   0.9076 B(  6-C , 10-C ) :   0.9084
B( 10-C , 11-N ) :   2.7745 B( 12-C , 13-H ) :   0.9022 B( 12-C , 14-H ) :   0.9163
B( 12-C , 15-H ) :   0.9152 B( 12-C , 16-C ) :   0.9009 B( 16-C , 17-N ) :   2.7846

MP2 TOTAL ENERGY:     -397.459302607 Eh
FINAL SINGLE POINT ENERGY      -397.459302607346

DIPOLE MOMENT
-------------
                                X             Y             Z
Electronic contribution:     -0.24609      -0.05160      -3.13781
Nuclear contribution   :      0.36447       0.09587       4.63747
                        -----------------------------------------
Total Dipole Moment    :      0.11838       0.04428       1.49966
                        -----------------------------------------
Magnitude (a.u.)       :      1.50498
Magnitude (Debye)      :      3.82535

Rotational constants in cm-1:     0.044834     0.008079     0.007707
Rotational constants in MHz :  1344.081796   242.198402   231.061124

                             ****ORCA TERMINATED NORMALLY****
TOTAL RUN TIME: 0 days 0 hours 2 minutes 30 seconds 20 msec
