                         Program Version 4.2.0 -  RELEASE  -
|  1> # 12meoh.boyd.etal.mol1,5,9
|  2> ! MP2 def2-TZVP EnGrad TightSCF
|  3>
|  4> %pal
|  5>     nprocs 6
|  6> end
|  7>
|  8> %maxcore 8000
|  9>
| 10> %scf
| 11>     ConvForced true
| 12> end
| 13>
| 14> *xyz 0 1
| 15> O   0.666045193  -2.600503172   0.138317521
| 16> H  -0.227115049  -2.712051982  -0.281868004
| 17> C   0.490021232  -1.851247678   1.341189459
| 18> H   1.466500502  -1.466176022   1.645844415
| 19> H   0.097564527  -2.488364683   2.146902740
| 20> H  -0.187588112  -1.000787499   1.200739571
| 21> O  -0.662721750   1.449094618  -1.383082065
| 22> H   0.064188300   2.119867608  -1.465650660
| 23> C  -0.353319239   0.341218776  -2.229326771
| 24> H  -1.072358530  -0.454743281  -2.019906495
| 25> H   0.657636746  -0.044472139  -2.042736771
| 26> H  -0.434616607   0.624733901  -3.287793021
| 27> O   1.390610024   3.194080770  -1.536658882
| 28> H   2.162932299   2.881562730  -0.993525056
| 29> C   1.202977189   4.580367182  -1.302880219
| 30> H   0.374773115   4.915764831  -1.934164643
| 31> H   2.098649340   5.157710875  -1.570472348
| 32> H   0.950320401   4.800436015  -0.254328827
| 33> *
| 34>
| 35>                          ****END OF INPUT****

CARTESIAN COORDINATES (ANGSTROEM)
---------------------------------
  O      0.666045   -2.600503    0.138318
  H     -0.227115   -2.712052   -0.281868
  C      0.490021   -1.851248    1.341189
  H      1.466501   -1.466176    1.645844
  H      0.097565   -2.488365    2.146903
  H     -0.187588   -1.000787    1.200740
  O     -0.662722    1.449095   -1.383082
  H      0.064188    2.119868   -1.465651
  C     -0.353319    0.341219   -2.229327
  H     -1.072359   -0.454743   -2.019906
  H      0.657637   -0.044472   -2.042737
  H     -0.434617    0.624734   -3.287793
  O      1.390610    3.194081   -1.536659
  H      2.162932    2.881563   -0.993525
  C      1.202977    4.580367   -1.302880
  H      0.374773    4.915765   -1.934165
  H      2.098649    5.157711   -1.570472
  H      0.950320    4.800436   -0.254329

 Total Charge           Charge          ....    0
 Multiplicity           Mult            ....    1
 Number of Electrons    NEL             ....   54
 Basis Dimension        Dim             ....  258

ORBITAL ENERGIES
----------------

  NO   OCC          E(Eh)            E(eV)
   0   2.0000     -20.590301      -560.2906
   1   2.0000     -20.551932      -559.2465
   2   2.0000     -20.514495      -558.2278
   3   2.0000     -11.290520      -307.2307
   4   2.0000     -11.264858      -306.5324
   5   2.0000     -11.249512      -306.1148
   6   2.0000      -1.384543       -37.6753
   7   2.0000      -1.339784       -36.4574
   8   2.0000      -1.310069       -35.6488
   9   2.0000      -0.942482       -25.6462
  10   2.0000      -0.913504       -24.8577
  11   2.0000      -0.896393       -24.3921
  12   2.0000      -0.716874       -19.5071
  13   2.0000      -0.674941       -18.3661
  14   2.0000      -0.672075       -18.2881
  15   2.0000      -0.636869       -17.3301
  16   2.0000      -0.611016       -16.6266
  17   2.0000      -0.610584       -16.6148
  18   2.0000      -0.589850       -16.0506
  19   2.0000      -0.584448       -15.9036
  20   2.0000      -0.562581       -15.3086
  21   2.0000      -0.528142       -14.3715
  22   2.0000      -0.495008       -13.4699
  23   2.0000      -0.484853       -13.1935
  24   2.0000      -0.459461       -12.5026
  25   2.0000      -0.443644       -12.0722
  26   2.0000      -0.417062       -11.3488
  27   0.0000       0.115299         3.1374
  28   0.0000       0.135831         3.6961
  29   0.0000       0.159903         4.3512
  30   0.0000       0.178199         4.8490
  31   0.0000       0.194634         5.2963

MULLIKEN ATOMIC CHARGES
-----------------------
   0 O :   -0.500525
   1 H :    0.322733
   2 C :   -0.187054
   3 H :    0.120273
   4 H :    0.112006
   5 H :    0.134581
   6 O :   -0.543378
   7 H :    0.348383
   8 C :   -0.160777
   9 H :    0.100827
  10 H :    0.111235
  11 H :    0.104044
  12 O :   -0.522915
  13 H :    0.343156
  14 C :   -0.176531
  15 H :    0.144147
  16 H :    0.124094
  17 H :    0.125701
Sum of atomic charges:   -0.0000000

LOEWDIN ATOMIC CHARGES
----------------------
   0 O :   -0.111471
   1 H :    0.189021
   2 C :   -0.379277
   3 H :    0.107036
   4 H :    0.095725
   5 H :    0.101034
   6 O :   -0.130114
   7 H :    0.158435
   8 C :   -0.391932
   9 H :    0.099796
  10 H :    0.094336
  11 H :    0.093532
  12 O :   -0.074251
  13 H :    0.200235
  14 C :   -0.374684
  15 H :    0.116624
  16 H :    0.103587
  17 H :    0.102367

  Mayer bond orders larger than 0.100000
B(  0-O ,  1-H ) :   0.8424 B(  0-O ,  2-C ) :   0.9176 B(  2-C ,  3-H ) :   0.9394
B(  2-C ,  4-H ) :   0.9384 B(  2-C ,  5-H ) :   0.9375 B(  6-O ,  7-H ) :   0.7921
B(  6-O ,  8-C ) :   0.9283 B(  8-C ,  9-H ) :   0.9438 B(  8-C , 10-H ) :   0.9405
B(  8-C , 11-H ) :   0.9366 B( 12-O , 13-H ) :   0.8264 B( 12-O , 14-C ) :   0.8707
B( 14-C , 15-H ) :   0.9391 B( 14-C , 16-H ) :   0.9345 B( 14-C , 17-H ) :   0.9380

MP2 TOTAL ENERGY:     -346.531050971 Eh
FINAL SINGLE POINT ENERGY      -346.531050971124

DIPOLE MOMENT
-------------
                                X             Y             Z
Electronic contribution:      0.20328      -0.98285      -0.73207
Nuclear contribution   :      0.38412       1.96073       1.02578
                        -----------------------------------------
Total Dipole Moment    :      0.58740       0.97788       0.29371
                        -----------------------------------------
Magnitude (a.u.)       :      1.17795
Magnitude (Debye)      :      2.99411

Rotational constants in cm-1:     0.129203     0.022964     0.020837
Rotational constants in MHz :  3873.405389   688.453244   624.679167

                             ****ORCA TERMINATED NORMALLY****
TOTAL RUN TIME: 0 days 0 hours 1 minutes 15 seconds 284 msec
