                         Program Version 4.2.0 -  RELEASE  -
|  1> # 12h2o.su.etal.mol1,3,6,10,11
|  2> ! MP2 def2-TZVP EnGrad TightSCF
|  3>
|  4> %pal
|  5>     nprocs 6
|  6> end
|  7>
|  8> %maxcore 8000
|  9>
| 10> %scf
| 11>     ConvForced true
| 12> end
| 13>
| 14> *xyz 0 1
| 15> O  -1.794470000  -0.923410000   2.768350000
| 16> H  -2.338250000  -1.359750000   3.430940000
| 17> H  -0.879480000  -1.303000000   2.865760000
| 18> O  -1.752130000  -0.741530000  -2.896280000
| 19> H  -2.036450000  -0.920500000  -1.984040000
| 20> H  -0.921210000  -1.242140000  -2.984230000
| 21> O   1.737840000   0.885520000  -0.052730000
| 22> H   2.090180000   1.032320000   0.841890000
| 23> H   0.839590000   1.284090000  -0.017130000
| 24> O  -0.923410000   1.794470000  -2.768350000
| 25> H  -1.359750000   2.338250000  -3.430940000
| 26> H  -1.303000000   0.879480000  -2.865760000
| 27> O  -0.741530000   1.752130000   2.896280000
| 28> H  -0.920500000   2.036450000   1.984040000
| 29> H  -1.242140000   0.921210000   2.984230000
| 30> *
| 31>
| 32>                          ****END OF INPUT****

CARTESIAN COORDINATES (ANGSTROEM)
---------------------------------
  O     -1.794470   -0.923410    2.768350
  H     -2.338250   -1.359750    3.430940
  H     -0.879480   -1.303000    2.865760
  O     -1.752130   -0.741530   -2.896280
  H     -2.036450   -0.920500   -1.984040
  H     -0.921210   -1.242140   -2.984230
  O      1.737840    0.885520   -0.052730
  H      2.090180    1.032320    0.841890
  H      0.839590    1.284090   -0.017130
  O     -0.923410    1.794470   -2.768350
  H     -1.359750    2.338250   -3.430940
  H     -1.303000    0.879480   -2.865760
  O     -0.741530    1.752130    2.896280
  H     -0.920500    2.036450    1.984040
  H     -1.242140    0.921210    2.984230

 Total Charge           Charge          ....    0
 Multiplicity           Mult            ....    1
 Number of Electrons    NEL             ....   50
 Basis Dimension        Dim             ....  215

ORBITAL ENERGIES
----------------

  NO   OCC          E(Eh)            E(eV)
   0   2.0000     -20.600437      -560.5664
   1   2.0000     -20.597550      -560.4878
   2   2.0000     -20.550703      -559.2131
   3   2.0000     -20.542671      -558.9945
   4   2.0000     -20.519202      -558.3559
   5   2.0000      -1.382843       -37.6291
   6   2.0000      -1.378088       -37.4997
   7   2.0000      -1.326676       -36.1007
   8   2.0000      -1.324752       -36.0483
   9   2.0000      -1.301450       -35.4143
  10   2.0000      -0.745236       -20.2789
  11   2.0000      -0.740317       -20.1450
  12   2.0000      -0.694299       -18.8928
  13   2.0000      -0.692357       -18.8400
  14   2.0000      -0.688258       -18.7285
  15   2.0000      -0.617911       -16.8142
  16   2.0000      -0.617436       -16.8013
  17   2.0000      -0.568372       -15.4662
  18   2.0000      -0.566023       -15.4023
  19   2.0000      -0.558838       -15.2067
  20   2.0000      -0.536451       -14.5976
  21   2.0000      -0.515368       -14.0239
  22   2.0000      -0.494170       -13.4470
  23   2.0000      -0.489435       -13.3182
  24   2.0000      -0.469457       -12.7746
  25   0.0000       0.090758         2.4697
  26   0.0000       0.113804         3.0968
  27   0.0000       0.136618         3.7176
  28   0.0000       0.170628         4.6430
  29   0.0000       0.177595         4.8326

MULLIKEN ATOMIC CHARGES
-----------------------
   0 O :   -0.698320
   1 H :    0.356315
   2 H :    0.362147
   3 O :   -0.679332
   4 H :    0.358635
   5 H :    0.364058
   6 O :   -0.680912
   7 H :    0.336142
   8 H :    0.338975
   9 O :   -0.730130
  10 H :    0.325785
  11 H :    0.363933
  12 O :   -0.702241
  13 H :    0.327271
  14 H :    0.357673
Sum of atomic charges:   -0.0000000

LOEWDIN ATOMIC CHARGES
----------------------
   0 O :   -0.311881
   1 H :    0.165204
   2 H :    0.188913
   3 O :   -0.271076
   4 H :    0.174995
   5 H :    0.178950
   6 O :   -0.338244
   7 H :    0.163662
   8 H :    0.169723
   9 O :   -0.371294
  10 H :    0.149349
  11 H :    0.141551
  12 O :   -0.344926
  13 H :    0.157740
  14 H :    0.147334

  Mayer bond orders larger than 0.100000
B(  0-O ,  1-H ) :   0.8395 B(  0-O ,  2-H ) :   0.8295 B(  3-O ,  4-H ) :   0.8368
B(  3-O ,  5-H ) :   0.8332 B(  6-O ,  7-H ) :   0.8523 B(  6-O ,  8-H ) :   0.8458
B(  9-O , 10-H ) :   0.8601 B(  9-O , 11-H ) :   0.7882 B( 12-O , 13-H ) :   0.8574
B( 12-O , 14-H ) :   0.8176

MP2 TOTAL ENERGY:     -381.583086855 Eh
FINAL SINGLE POINT ENERGY      -381.583086854656

DIPOLE MOMENT
-------------
                                X             Y             Z
Electronic contribution:     -0.01821      -0.24160      -0.11203
Nuclear contribution   :     -0.93525      -1.55481       0.77428
                        -----------------------------------------
Total Dipole Moment    :     -0.95346      -1.79640       0.66225
                        -----------------------------------------
Magnitude (a.u.)       :      2.13886
Magnitude (Debye)      :      5.43656

Rotational constants in cm-1:     0.060530     0.025639     0.021533
Rotational constants in MHz :  1814.632172   768.624603   645.530782

                             ****ORCA TERMINATED NORMALLY****
TOTAL RUN TIME: 0 days 0 hours 0 minutes 24 seconds 204 msec
