                         Program Version 4.2.0 -  RELEASE  -
|  1> # 12h2o.su.etal.mol0,2,4,5,7,8,9,11
|  2> ! MP2 def2-TZVP EnGrad TightSCF
|  3>
|  4> %pal
|  5>     nprocs 6
|  6> end
|  7>
|  8> %maxcore 8000
|  9>
| 10> %scf
| 11>     ConvForced true
| 12> end
| 13>
| 14> *xyz 0 1
| 15> O   1.794470000   0.923410000   2.768350000
| 16> H   2.338250000   1.359750000   3.430940000
| 17> H   0.879480000   1.303000000   2.865760000
| 18> O   0.923410000  -1.794470000  -2.768350000
| 19> H   1.359750000  -2.338250000  -3.430940000
| 20> H   1.303000000  -0.879480000  -2.865760000
| 21> O  -0.885520000   1.737840000   0.052730000
| 22> H  -1.032320000   2.090180000  -0.841890000
| 23> H  -1.284090000   0.839590000   0.017130000
| 24> O   0.885520000  -1.737840000   0.052730000
| 25> H   1.284090000  -0.839590000   0.017130000
| 26> H   1.032320000  -2.090180000  -0.841890000
| 27> O  -1.737840000  -0.885520000  -0.052730000
| 28> H  -2.090180000  -1.032320000   0.841890000
| 29> H  -0.839590000  -1.284090000  -0.017130000
| 30> O   1.752130000   0.741530000  -2.896280000
| 31> H   2.036450000   0.920500000  -1.984040000
| 32> H   0.921210000   1.242140000  -2.984230000
| 33> O   0.741530000  -1.752130000   2.896280000
| 34> H   0.920500000  -2.036450000   1.984040000
| 35> H   1.242140000  -0.921210000   2.984230000
| 36> O  -0.741530000   1.752130000   2.896280000
| 37> H  -0.920500000   2.036450000   1.984040000
| 38> H  -1.242140000   0.921210000   2.984230000
| 39> *
| 40>
| 41>                          ****END OF INPUT****

CARTESIAN COORDINATES (ANGSTROEM)
---------------------------------
  O      1.794470    0.923410    2.768350
  H      2.338250    1.359750    3.430940
  H      0.879480    1.303000    2.865760
  O      0.923410   -1.794470   -2.768350
  H      1.359750   -2.338250   -3.430940
  H      1.303000   -0.879480   -2.865760
  O     -0.885520    1.737840    0.052730
  H     -1.032320    2.090180   -0.841890
  H     -1.284090    0.839590    0.017130
  O      0.885520   -1.737840    0.052730
  H      1.284090   -0.839590    0.017130
  H      1.032320   -2.090180   -0.841890
  O     -1.737840   -0.885520   -0.052730
  H     -2.090180   -1.032320    0.841890
  H     -0.839590   -1.284090   -0.017130
  O      1.752130    0.741530   -2.896280
  H      2.036450    0.920500   -1.984040
  H      0.921210    1.242140   -2.984230
  O      0.741530   -1.752130    2.896280
  H      0.920500   -2.036450    1.984040
  H      1.242140   -0.921210    2.984230
  O     -0.741530    1.752130    2.896280
  H     -0.920500    2.036450    1.984040
  H     -1.242140    0.921210    2.984230

 Total Charge           Charge          ....    0
 Multiplicity           Mult            ....    1
 Number of Electrons    NEL             ....   80
 Basis Dimension        Dim             ....  344

ORBITAL ENERGIES
----------------

  NO   OCC          E(Eh)            E(eV)
   0   2.0000     -20.622110      -561.1561
   1   2.0000     -20.584586      -560.1351
   2   2.0000     -20.570603      -559.7546
   3   2.0000     -20.570340      -559.7474
   4   2.0000     -20.565640      -559.6195
   5   2.0000     -20.563403      -559.5587
   6   2.0000     -20.538198      -558.8728
   7   2.0000     -20.506088      -557.9990
   8   2.0000      -1.407643       -38.3039
   9   2.0000      -1.374496       -37.4019
  10   2.0000      -1.364143       -37.1202
  11   2.0000      -1.355688       -36.8902
  12   2.0000      -1.345932       -36.6247
  13   2.0000      -1.341866       -36.5140
  14   2.0000      -1.321626       -35.9633
  15   2.0000      -1.290894       -35.1270
  16   2.0000      -0.764592       -20.8056
  17   2.0000      -0.735277       -20.0079
  18   2.0000      -0.731392       -19.9022
  19   2.0000      -0.728274       -19.8173
  20   2.0000      -0.718242       -19.5443
  21   2.0000      -0.715775       -19.4772
  22   2.0000      -0.705332       -19.1931
  23   2.0000      -0.669521       -18.2186
  24   2.0000      -0.647145       -17.6097
  25   2.0000      -0.626877       -17.0582
  26   2.0000      -0.613798       -16.7023
  27   2.0000      -0.600107       -16.3297
  28   2.0000      -0.592641       -16.1266
  29   2.0000      -0.580445       -15.7947
  30   2.0000      -0.563537       -15.3346
  31   2.0000      -0.549223       -14.9451
  32   2.0000      -0.534579       -14.5466
  33   2.0000      -0.522762       -14.2251
  34   2.0000      -0.520523       -14.1642
  35   2.0000      -0.511839       -13.9279
  36   2.0000      -0.508859       -13.8468
  37   2.0000      -0.506260       -13.7760
  38   2.0000      -0.485322       -13.2063
  39   2.0000      -0.456211       -12.4141
  40   0.0000       0.071329         1.9410
  41   0.0000       0.120493         3.2788
  42   0.0000       0.127064         3.4576
  43   0.0000       0.146166         3.9774
  44   0.0000       0.162739         4.4284

MULLIKEN ATOMIC CHARGES
-----------------------
   0 O :   -0.745609
   1 H :    0.337125
   2 H :    0.384276
   3 O :   -0.736980
   4 H :    0.344607
   5 H :    0.370563
   6 O :   -0.733003
   7 H :    0.332697
   8 H :    0.357814
   9 O :   -0.727406
  10 H :    0.346008
  11 H :    0.391348
  12 O :   -0.713797
  13 H :    0.346590
  14 H :    0.384954
  15 O :   -0.675023
  16 H :    0.361817
  17 H :    0.361286
  18 O :   -0.737227
  19 H :    0.363452
  20 H :    0.350611
  21 O :   -0.699608
  22 H :    0.388888
  23 H :    0.346617
Sum of atomic charges:    0.0000000

LOEWDIN ATOMIC CHARGES
----------------------
   0 O :   -0.344277
   1 H :    0.153732
   2 H :    0.146017
   3 O :   -0.338122
   4 H :    0.157934
   5 H :    0.143463
   6 O :   -0.343669
   7 H :    0.159454
   8 H :    0.142929
   9 O :   -0.280826
  10 H :    0.170352
  11 H :    0.157494
  12 O :   -0.306153
  13 H :    0.164736
  14 H :    0.148569
  15 O :   -0.264524
  16 H :    0.174261
  17 H :    0.177235
  18 O :   -0.359082
  19 H :    0.145499
  20 H :    0.142186
  21 O :   -0.275690
  22 H :    0.160041
  23 H :    0.168442

  Mayer bond orders larger than 0.100000
B(  0-O ,  1-H ) :   0.8506 B(  0-O ,  2-H ) :   0.7544 B(  3-O ,  4-H ) :   0.8467
B(  3-O ,  5-H ) :   0.7687 B(  6-O ,  7-H ) :   0.8525 B(  6-O ,  8-H ) :   0.7586
B(  8-H , 12-O ) :   0.1184 B(  9-O , 10-H ) :   0.8324 B(  9-O , 11-H ) :   0.7808
B( 12-O , 13-H ) :   0.8425 B( 12-O , 14-H ) :   0.7676 B( 15-O , 16-H ) :   0.8336
B( 15-O , 17-H ) :   0.8334 B( 18-O , 19-H ) :   0.8295 B( 18-O , 20-H ) :   0.8137
B( 21-O , 22-H ) :   0.7970 B( 21-O , 23-H ) :   0.8399

MP2 TOTAL ENERGY:     -610.582022505 Eh
FINAL SINGLE POINT ENERGY      -610.582022505141

DIPOLE MOMENT
-------------
                                X             Y             Z
Electronic contribution:     -0.04481      -0.01251      -0.34221
Nuclear contribution   :      0.36959       1.09984      -1.46039
                        -----------------------------------------
Total Dipole Moment    :      0.32478       1.08733      -1.80259
                        -----------------------------------------
Magnitude (a.u.)       :      2.13005
Magnitude (Debye)      :      5.41416

Rotational constants in cm-1:     0.033964     0.017806     0.016130
Rotational constants in MHz :  1018.229140   533.811302   483.551912

                             ****ORCA TERMINATED NORMALLY****
TOTAL RUN TIME: 0 days 0 hours 3 minutes 2 seconds 315 msec
