                         Program Version 4.2.0 -  RELEASE  -
|  1> # 12h2o.su.etal.mol1,2,3,5,7,8,9
|  2> ! MP2 def2-TZVP EnGrad TightSCF
|  3>
|  4> %pal
|  5>     nprocs 6
|  6> end
|  7>
|  8> %maxcore 8000
|  9>
| 10> %scf
| 11>     ConvForced true
| 12> end
| 13>
| 14> *xyz 0 1
| 15> O  -1.794470000  -0.923410000   2.768350000
| 16> H  -2.338250000  -1.359750000   3.430940000
| 17> H  -0.879480000  -1.303000000   2.865760000
| 18> O   0.923410000  -1.794470000  -2.768350000
| 19> H   1.359750000  -2.338250000  -3.430940000
| 20> H   1.303000000  -0.879480000  -2.865760000
| 21> O  -1.752130000  -0.741530000  -2.896280000
| 22> H  -2.036450000  -0.920500000  -1.984040000
| 23> H  -0.921210000  -1.242140000  -2.984230000
| 24> O   0.885520000  -1.737840000   0.052730000
| 25> H   1.284090000  -0.839590000   0.017130000
| 26> H   1.032320000  -2.090180000  -0.841890000
| 27> O  -1.737840000  -0.885520000  -0.052730000
| 28> H  -2.090180000  -1.032320000   0.841890000
| 29> H  -0.839590000  -1.284090000  -0.017130000
| 30> O   1.752130000   0.741530000  -2.896280000
| 31> H   2.036450000   0.920500000  -1.984040000
| 32> H   0.921210000   1.242140000  -2.984230000
| 33> O   0.741530000  -1.752130000   2.896280000
| 34> H   0.920500000  -2.036450000   1.984040000
| 35> H   1.242140000  -0.921210000   2.984230000
| 36> *
| 37>
| 38>                          ****END OF INPUT****

CARTESIAN COORDINATES (ANGSTROEM)
---------------------------------
  O     -1.794470   -0.923410    2.768350
  H     -2.338250   -1.359750    3.430940
  H     -0.879480   -1.303000    2.865760
  O      0.923410   -1.794470   -2.768350
  H      1.359750   -2.338250   -3.430940
  H      1.303000   -0.879480   -2.865760
  O     -1.752130   -0.741530   -2.896280
  H     -2.036450   -0.920500   -1.984040
  H     -0.921210   -1.242140   -2.984230
  O      0.885520   -1.737840    0.052730
  H      1.284090   -0.839590    0.017130
  H      1.032320   -2.090180   -0.841890
  O     -1.737840   -0.885520   -0.052730
  H     -2.090180   -1.032320    0.841890
  H     -0.839590   -1.284090   -0.017130
  O      1.752130    0.741530   -2.896280
  H      2.036450    0.920500   -1.984040
  H      0.921210    1.242140   -2.984230
  O      0.741530   -1.752130    2.896280
  H      0.920500   -2.036450    1.984040
  H      1.242140   -0.921210    2.984230

 Total Charge           Charge          ....    0
 Multiplicity           Mult            ....    1
 Number of Electrons    NEL             ....   70
 Basis Dimension        Dim             ....  301

ORBITAL ENERGIES
----------------

  NO   OCC          E(Eh)            E(eV)
   0   2.0000     -20.621063      -561.1276
   1   2.0000     -20.604117      -560.6665
   2   2.0000     -20.585587      -560.1623
   3   2.0000     -20.581570      -560.0530
   4   2.0000     -20.535506      -558.7995
   5   2.0000     -20.511071      -558.1346
   6   2.0000     -20.496530      -557.7389
   7   2.0000      -1.407494       -38.2999
   8   2.0000      -1.392651       -37.8960
   9   2.0000      -1.373290       -37.3691
  10   2.0000      -1.365024       -37.1442
  11   2.0000      -1.320689       -35.9378
  12   2.0000      -1.298319       -35.3291
  13   2.0000      -1.280548       -34.8455
  14   2.0000      -0.763180       -20.7672
  15   2.0000      -0.756732       -20.5917
  16   2.0000      -0.748354       -20.3638
  17   2.0000      -0.733169       -19.9506
  18   2.0000      -0.705060       -19.1857
  19   2.0000      -0.681958       -18.5570
  20   2.0000      -0.663243       -18.0478
  21   2.0000      -0.653349       -17.7785
  22   2.0000      -0.636465       -17.3191
  23   2.0000      -0.611608       -16.6427
  24   2.0000      -0.597271       -16.2526
  25   2.0000      -0.583166       -15.8688
  26   2.0000      -0.558847       -15.2070
  27   2.0000      -0.555637       -15.1196
  28   2.0000      -0.539544       -14.6817
  29   2.0000      -0.520980       -14.1766
  30   2.0000      -0.517187       -14.0734
  31   2.0000      -0.507964       -13.8224
  32   2.0000      -0.482136       -13.1196
  33   2.0000      -0.462752       -12.5921
  34   2.0000      -0.446296       -12.1443
  35   0.0000       0.069236         1.8840
  36   0.0000       0.119831         3.2608
  37   0.0000       0.137187         3.7330
  38   0.0000       0.159507         4.3404
  39   0.0000       0.170800         4.6477

MULLIKEN ATOMIC CHARGES
-----------------------
   0 O :   -0.735257
   1 H :    0.333607
   2 H :    0.369679
   3 O :   -0.749626
   4 H :    0.355105
   5 H :    0.381282
   6 O :   -0.736614
   7 H :    0.375108
   8 H :    0.339091
   9 O :   -0.716599
  10 H :    0.331685
  11 H :    0.395732
  12 O :   -0.744694
  13 H :    0.369908
  14 H :    0.337946
  15 O :   -0.681549
  16 H :    0.348504
  17 H :    0.384184
  18 O :   -0.690648
  19 H :    0.388447
  20 H :    0.344706
Sum of atomic charges:   -0.0000000

LOEWDIN ATOMIC CHARGES
----------------------
   0 O :   -0.340929
   1 H :    0.152179
   2 H :    0.143467
   3 O :   -0.311382
   4 H :    0.161660
   5 H :    0.145751
   6 O :   -0.360614
   7 H :    0.151805
   8 H :    0.136355
   9 O :   -0.282882
  10 H :    0.166523
  11 H :    0.159248
  12 O :   -0.349732
  13 H :    0.149113
  14 H :    0.134874
  15 O :   -0.265162
  16 H :    0.169144
  17 H :    0.186850
  18 O :   -0.274024
  19 H :    0.158027
  20 H :    0.169730

  Mayer bond orders larger than 0.100000
B(  0-O ,  1-H ) :   0.8524 B(  0-O ,  2-H ) :   0.7670 B(  3-O ,  4-H ) :   0.8381
B(  3-O ,  5-H ) :   0.7506 B(  6-O ,  7-H ) :   0.8106 B(  6-O ,  8-H ) :   0.8361
B(  9-O , 10-H ) :   0.8442 B(  9-O , 11-H ) :   0.7798 B( 12-O , 13-H ) :   0.8074
B( 12-O , 14-H ) :   0.8056 B( 15-O , 16-H ) :   0.8430 B( 15-O , 17-H ) :   0.8151
B( 18-O , 19-H ) :   0.8007 B( 18-O , 20-H ) :   0.8449

MP2 TOTAL ENERGY:     -534.254111677 Eh
FINAL SINGLE POINT ENERGY      -534.254111676766

DIPOLE MOMENT
-------------
                                X             Y             Z
Electronic contribution:      0.25922       0.07188      -0.18227
Nuclear contribution   :      2.46212       0.08525       0.68611
                        -----------------------------------------
Total Dipole Moment    :      2.72134       0.15713       0.50384
                        -----------------------------------------
Magnitude (a.u.)       :      2.77205
Magnitude (Debye)      :      7.04599

Rotational constants in cm-1:     0.053715     0.020522     0.017115
Rotational constants in MHz :  1610.350070   615.222577   513.080366

                             ****ORCA TERMINATED NORMALLY****
TOTAL RUN TIME: 0 days 0 hours 2 minutes 32 seconds 768 msec
