                         Program Version 4.2.0 -  RELEASE  -
|  1> # 12mecn.remya.etal.2.mol0,7,8
|  2> ! MP2 def2-TZVP EnGrad TightSCF
|  3>
|  4> %pal
|  5>     nprocs 6
|  6> end
|  7>
|  8> %maxcore 8000
|  9>
| 10> %scf
| 11>     ConvForced true
| 12> end
| 13>
| 14> *xyz 0 1
| 15> C  -0.869520000  -3.929380000   1.700199000
| 16> H  -0.057420000  -3.268850000   2.015352000
| 17> H  -0.697530000  -4.930670000   2.101524000
| 18> H  -1.821490000  -3.546590000   2.077146000
| 19> C  -0.916080000  -3.969960000   0.256749000
| 20> N  -0.955390000  -3.995980000  -0.909290000
| 21> C   1.502241000   0.651296000   1.710523000
| 22> H   1.309219000   1.637164000   2.143202000
| 23> H   2.493408000   0.297996000   2.009069000
| 24> H   0.746597000  -0.059850000   2.055508000
| 25> C   1.447974000   0.738517000   0.269805000
| 26> N   1.405612000   0.808047000  -0.894380000
| 27> C   1.912641000  -2.468050000  -1.750510000
| 28> H   2.876947000  -2.793500000  -2.151200000
| 29> H   1.688016000  -1.463720000  -2.122170000
| 30> H   1.123460000  -3.154780000  -2.069590000
| 31> C   1.977850000  -2.444240000  -0.306900000
| 32> N   2.036566000  -2.426130000   0.858249000
| 33> *
| 34>
| 35>                          ****END OF INPUT****

CARTESIAN COORDINATES (ANGSTROEM)
---------------------------------
  C     -0.869520   -3.929380    1.700199
  H     -0.057420   -3.268850    2.015352
  H     -0.697530   -4.930670    2.101524
  H     -1.821490   -3.546590    2.077146
  C     -0.916080   -3.969960    0.256749
  N     -0.955390   -3.995980   -0.909290
  C      1.502241    0.651296    1.710523
  H      1.309219    1.637164    2.143202
  H      2.493408    0.297996    2.009069
  H      0.746597   -0.059850    2.055508
  C      1.447974    0.738517    0.269805
  N      1.405612    0.808047   -0.894380
  C      1.912641   -2.468050   -1.750510
  H      2.876947   -2.793500   -2.151200
  H      1.688016   -1.463720   -2.122170
  H      1.123460   -3.154780   -2.069590
  C      1.977850   -2.444240   -0.306900
  N      2.036566   -2.426130    0.858249

 Total Charge           Charge          ....    0
 Multiplicity           Mult            ....    1
 Number of Electrons    NEL             ....   66
 Basis Dimension        Dim             ....  333

ORBITAL ENERGIES
----------------

  NO   OCC          E(Eh)            E(eV)
   0   2.0000     -15.572204      -423.7412
   1   2.0000     -15.569808      -423.6760
   2   2.0000     -15.568869      -423.6505
   3   2.0000     -11.284934      -307.0787
   4   2.0000     -11.283176      -307.0308
   5   2.0000     -11.281073      -306.9736
   6   2.0000     -11.275899      -306.8328
   7   2.0000     -11.275767      -306.8292
   8   2.0000     -11.260482      -306.4133
   9   2.0000      -1.219214       -33.1765
  10   2.0000      -1.215509       -33.0757
  11   2.0000      -1.212577       -32.9959
  12   2.0000      -1.038742       -28.2656
  13   2.0000      -1.037326       -28.2271
  14   2.0000      -1.026688       -27.9376
  15   2.0000      -0.696256       -18.9461
  16   2.0000      -0.693323       -18.8663
  17   2.0000      -0.684833       -18.6352
  18   2.0000      -0.631037       -17.1714
  19   2.0000      -0.629514       -17.1299
  20   2.0000      -0.625858       -17.0305
  21   2.0000      -0.623205       -16.9583
  22   2.0000      -0.612226       -16.6595
  23   2.0000      -0.609191       -16.5769
  24   2.0000      -0.560428       -15.2500
  25   2.0000      -0.556439       -15.1415
  26   2.0000      -0.554973       -15.1016
  27   2.0000      -0.463092       -12.6014
  28   2.0000      -0.459917       -12.5150
  29   2.0000      -0.458943       -12.4885
  30   2.0000      -0.456623       -12.4253
  31   2.0000      -0.455913       -12.4060
  32   2.0000      -0.451223       -12.2784
  33   0.0000       0.115765         3.1501
  34   0.0000       0.142233         3.8704
  35   0.0000       0.155698         4.2368
  36   0.0000       0.163364         4.4453
  37   0.0000       0.173021         4.7082

MULLIKEN ATOMIC CHARGES
-----------------------
   0 C :   -0.287531
   1 H :    0.194826
   2 H :    0.170270
   3 H :    0.167613
   4 C :   -0.103041
   5 N :   -0.142107
   6 C :   -0.252607
   7 H :    0.172933
   8 H :    0.177604
   9 H :    0.164350
  10 C :   -0.124284
  11 N :   -0.137927
  12 C :   -0.292870
  13 H :    0.161346
  14 H :    0.199997
  15 H :    0.199342
  16 C :   -0.070649
  17 N :   -0.197264
Sum of atomic charges:   -0.0000000

LOEWDIN ATOMIC CHARGES
----------------------
   0 C :   -0.283605
   1 H :    0.153769
   2 H :    0.152483
   3 H :    0.151006
   4 C :   -0.209309
   5 N :    0.035607
   6 C :   -0.285407
   7 H :    0.149929
   8 H :    0.156873
   9 H :    0.152724
  10 C :   -0.212929
  11 N :    0.034082
  12 C :   -0.280147
  13 H :    0.150684
  14 H :    0.157842
  15 H :    0.156180
  16 C :   -0.199812
  17 N :    0.020032

  Mayer bond orders larger than 0.100000
B(  0-C ,  1-H ) :   0.9054 B(  0-C ,  2-H ) :   0.9150 B(  0-C ,  3-H ) :   0.9174
B(  0-C ,  4-C ) :   0.9001 B(  4-C ,  5-N ) :   2.7717 B(  6-C ,  7-H ) :   0.9110
B(  6-C ,  8-H ) :   0.9132 B(  6-C ,  9-H ) :   0.9159 B(  6-C , 10-C ) :   0.9101
B( 10-C , 11-N ) :   2.7819 B( 12-C , 13-H ) :   0.9135 B( 12-C , 14-H ) :   0.9037
B( 12-C , 15-H ) :   0.9024 B( 12-C , 16-C ) :   0.8977 B( 16-C , 17-N ) :   2.7285

MP2 TOTAL ENERGY:     -397.467201710 Eh
FINAL SINGLE POINT ENERGY      -397.467201710088

DIPOLE MOMENT
-------------
                                X             Y             Z
Electronic contribution:     -0.06834       0.14208      -3.16429
Nuclear contribution   :      0.10725      -0.22305       4.61818
                        -----------------------------------------
Total Dipole Moment    :      0.03891      -0.08098       1.45389
                        -----------------------------------------
Magnitude (a.u.)       :      1.45666
Magnitude (Debye)      :      3.70255

Rotational constants in cm-1:     0.059540     0.025628     0.021927
Rotational constants in MHz :  1784.962086   768.297709   657.349416

                             ****ORCA TERMINATED NORMALLY****
TOTAL RUN TIME: 0 days 0 hours 5 minutes 21 seconds 92 msec
