                         Program Version 3.0.3 - RELEASE   -
|  1> ! BP86 Def2-SVP TightSCF Opt D3BJ
|  2>
|  3> %pal nprocs 12 end
|  4>
|  5> %scf
|  6>         maxiter 800
|  7> end
|  8>
|  9> * xyz  0  1
| 10> O  3.25840025	0.84796531	-3.25462219
| 11> H  3.64346439	0.16265526	-2.70844676
| 12> H  4.00779043	1.26697294	-3.67779923
| 13> O  -2.31146416	0.62444774	-0.31758500
| 14> H  -3.11493824	0.82978058	0.16043139
| 15> H  -1.67140167	1.25874765	0.00523922
| 16> O  -0.47193656	-0.10253465	-2.28907725
| 17> H  -1.28781797	0.14216345	-1.85239405
| 18> H  0.16988981	0.53289475	-1.97202798
| 19> O  1.38462335	-0.98464846	-4.18680917
| 20> H  0.58923299	-0.67631168	-3.75262665
| 21> H  2.02344212	-0.28684450	-4.04116556
| 22> O  2.29642045	-3.04754457	-2.71435200
| 23> H  2.44533296	-3.82225639	-3.25645762
| 24> H  1.97152001	-2.38605494	-3.32517359
| 25> O  -4.22440251	1.26207671	1.57808146
| 26> H  -5.07991736	1.69124501	1.58994603
| 27> H  -3.62786731	1.90538438	1.96087755
| 28> O  0.39279410	0.13530273	2.37930375
| 29> H  -0.01373106	0.40910011	3.20149845
| 30> H  -0.21092563	-0.51338786	2.01742690
| 31> O  -3.10860753	-0.70050544	3.20342939
| 32> H  -2.61467693	-1.21418933	2.56437283
| 33> H  -3.65298194	-0.11790683	2.67383785
| 34> O  -1.33042622	0.93750668	4.39088131
| 35> H  -1.98712672	0.31802285	4.07273654
| 36> H  -1.37323016	0.86405892	5.34429890
| 37> O  1.48340019	1.46271205	-1.22215693
| 38> H  2.10902240	1.47661333	-1.94647416
| 39> H  1.82946306	0.80518952	-0.61871972
| 40> O  -2.31953626	2.84992309	2.62940234
| 41> H  -1.61592117	2.88941384	1.98163839
| 42> H  -1.95339885	2.33790651	3.35052249
| 43> O  -1.40127093	-1.49169968	1.13332229
| 44> H  -0.86258216	-2.01787964	0.54240697
| 45> H  -1.78922420	-0.82105078	0.57122428
| 46> O  -0.35380817	2.18667146	0.75261084
| 47> H  -0.00870158	1.53298693	1.36074721
| 48> H  0.30329863	2.23933693	0.05858717
| 49> O  4.04351029	-1.16476496	-1.64603065
| 50> H  3.64136572	-0.99890805	-0.79338590
| 51> H  3.58293595	-1.93314999	-1.98320654
| 52> O  2.22702374	-0.59244315	0.40315599
| 53> H  1.84711040	-0.36363121	1.25141467
| 54> H  1.62804919	-1.24484192	0.04006209
| 55> O  0.43527950	-2.22246892	-0.83955452
| 56> H  1.01965239	-2.71550006	-1.41545423
| 57> H  0.05287322	-1.55055345	-1.40393639
| 58> **                         ****END OF INPUT****
 Total Charge           Charge          ....    0
 Multiplicity           Mult            ....    1
 Number of Electrons    NEL             ....  160
Dispersion correction           -0.054921580
FINAL SINGLE POINT ENERGY     -1222.210118519667
Dispersion correction            ...
Dispersion correction           -0.054245923
FINAL SINGLE POINT ENERGY     -1222.240636413646
Dispersion correction            ...
Dispersion correction           -0.054419484
FINAL SINGLE POINT ENERGY     -1222.250146659413
Dispersion correction            ...
FINAL SINGLE POINT ENERGY     -1222.254295015437
FINAL SINGLE POINT ENERGY     -1222.257594392679
FINAL SINGLE POINT ENERGY     -1222.260408225607
FINAL SINGLE POINT ENERGY     -1222.262666745231
FINAL SINGLE POINT ENERGY     -1222.264315616175
FINAL SINGLE POINT ENERGY     -1222.265377102948
FINAL SINGLE POINT ENERGY     -1222.265935163759
FINAL SINGLE POINT ENERGY     -1222.267542521642
FINAL SINGLE POINT ENERGY     -1222.267581837200
FINAL SINGLE POINT ENERGY     -1222.267617643761
FINAL SINGLE POINT ENERGY     -1222.267641766092
FINAL SINGLE POINT ENERGY     -1222.267657871112
FINAL SINGLE POINT ENERGY     -1222.267673037043
FINAL SINGLE POINT ENERGY     -1222.267688079807
Dispersion correction            ...
Dispersion correction           -0.058740851
FINAL SINGLE POINT ENERGY     -1222.267699478193
Dispersion correction            ...
Dispersion correction           -0.058752079
FINAL SINGLE POINT ENERGY     -1222.267705665676
Dispersion correction            ...
                    ***********************HURRAY********************

CARTESIAN COORDINATES (ANGSTROEM)
---------------------------------
  O      3.084683    0.756382   -3.061294
  H      3.536733    0.020464   -2.468944
  H      3.812349    1.214655   -3.519933
  O     -2.194196    0.548609   -0.356430
  H     -3.039331    0.794436    0.122366
  H     -1.524631    1.221951    0.006602
  O     -0.459872   -0.147735   -2.253042
  H     -1.323486    0.107610   -1.824772
  H      0.199598    0.531687   -1.883310
  O      1.294272   -0.992706   -4.139846
  H      0.469356   -0.679440   -3.678412
  H      1.954097   -0.270853   -3.931851
  O      2.172081   -2.837351   -2.596128
  H      2.340385   -3.655971   -3.097731
  H      1.804314   -2.143380   -3.288590
  O     -3.956491    1.205522    1.520677
  H     -4.847837    1.599230    1.494335
  H     -3.328932    1.935773    1.934072
  O      0.445317    0.147025    2.271694
  H      0.035033    0.402637    3.148176
  H     -0.221479   -0.526295    1.901440
  O     -3.025701   -0.756180    3.165271
  H     -2.498555   -1.280333    2.502281
  H     -3.553056   -0.133130    2.588069
  O     -1.311744    0.878548    4.136134
  H     -2.023013    0.179241    3.815324
  H     -1.317861    0.841127    5.110307
  O      1.357466    1.448834   -1.164662
  H      2.036383    1.490874   -1.899876
  H      1.739398    0.733100   -0.550173
  O     -2.276098    2.850520    2.525043
  H     -1.546783    2.879513    1.847357
  H     -1.885508    2.283280    3.250067
  O     -1.344848   -1.455489    1.157808
  H     -0.805409   -2.033646    0.550532
  H     -1.722817   -0.743950    0.538235
  O     -0.377068    2.144687    0.730053
  H      0.010081    1.435768    1.347024
  H      0.306692    2.235494    0.009251
  O      4.003823   -1.102063   -1.562254
  H      3.573165   -0.920406   -0.683174
  H      3.483032   -1.881310   -1.909191
  O      2.186953   -0.538761    0.370240
  H      1.829638   -0.305024    1.271061
  H      1.519008   -1.217367    0.012569
  O      0.395829   -2.146199   -0.740483
  H      0.979111   -2.682437   -1.353135
  H      0.015919   -1.436939   -1.362756

 Multiplicity           Mult            ....    1
 Number of Electrons    NEL             ....  160
 Basis Dimension        Dim             ....  384

ORBITAL ENERGIES
----------------

  NO   OCC          E(Eh)            E(eV)
   0   2.0000     -18.789721      -511.2943
   1   2.0000     -18.789679      -511.2932
   2   2.0000     -18.789584      -511.2906
   3   2.0000     -18.789243      -511.2813
   4   2.0000     -18.776713      -510.9403
   5   2.0000     -18.776169      -510.9255
   6   2.0000     -18.775937      -510.9192
   7   2.0000     -18.775812      -510.9158
   8   2.0000     -18.775077      -510.8958
   9   2.0000     -18.774889      -510.8907
  10   2.0000     -18.774750      -510.8869
  11   2.0000     -18.774456      -510.8789
  12   2.0000     -18.768767      -510.7241
  13   2.0000     -18.768725      -510.7230
  14   2.0000     -18.768521      -510.7174
  15   2.0000     -18.768510      -510.7171
  16   2.0000      -0.932574       -25.3766
  17   2.0000      -0.926480       -25.2108
  18   2.0000      -0.916551       -24.9406
  19   2.0000      -0.914774       -24.8923
  20   2.0000      -0.914720       -24.8908
  21   2.0000      -0.906032       -24.6544
  22   2.0000      -0.905283       -24.6340
  23   2.0000      -0.905234       -24.6327
  24   2.0000      -0.893274       -24.3072
  25   2.0000      -0.893251       -24.3066
  26   2.0000      -0.889956       -24.2169
  27   2.0000      -0.884541       -24.0696
  28   2.0000      -0.884526       -24.0692
  29   2.0000      -0.884426       -24.0665
  30   2.0000      -0.875499       -23.8235
  31   2.0000      -0.865387       -23.5484
  32   2.0000      -0.491187       -13.3659
  33   2.0000      -0.488000       -13.2792
  34   2.0000      -0.487577       -13.2677
  35   2.0000      -0.487405       -13.2630
  36   2.0000      -0.480433       -13.0733
  37   2.0000      -0.477197       -12.9852
  38   2.0000      -0.476889       -12.9768
  39   2.0000      -0.476579       -12.9684
  40   2.0000      -0.465423       -12.6648
  41   2.0000      -0.464607       -12.6426
  42   2.0000      -0.460361       -12.5271
  43   2.0000      -0.460039       -12.5183
  44   2.0000      -0.459850       -12.5131
  45   2.0000      -0.457838       -12.4584
  46   2.0000      -0.452634       -12.3168
  47   2.0000      -0.452554       -12.3146
  48   2.0000      -0.406971       -11.0743
  49   2.0000      -0.397668       -10.8211
  50   2.0000      -0.372927       -10.1478
  51   2.0000      -0.372734       -10.1426
  52   2.0000      -0.372167       -10.1272
  53   2.0000      -0.359426        -9.7805
  54   2.0000      -0.359380        -9.7792
  55   2.0000      -0.351704        -9.5704
  56   2.0000      -0.343578        -9.3492
  57   2.0000      -0.339611        -9.2413
  58   2.0000      -0.339387        -9.2352
  59   2.0000      -0.332051        -9.0356
  60   2.0000      -0.318846        -8.6762
  61   2.0000      -0.318757        -8.6738
  62   2.0000      -0.303629        -8.2622
  63   2.0000      -0.287043        -7.8108
  64   2.0000      -0.274256        -7.4629
  65   2.0000      -0.273966        -7.4550
  66   2.0000      -0.272725        -7.4212
  67   2.0000      -0.271470        -7.3871
  68   2.0000      -0.269892        -7.3441
  69   2.0000      -0.265881        -7.2350
  70   2.0000      -0.265513        -7.2250
  71   2.0000      -0.262617        -7.1462
  72   2.0000      -0.262084        -7.1317
  73   2.0000      -0.261915        -7.1271
  74   2.0000      -0.258671        -7.0388
  75   2.0000      -0.256345        -6.9755
  76   2.0000      -0.253578        -6.9002
  77   2.0000      -0.253415        -6.8958
  78   2.0000      -0.253247        -6.8912
  79   2.0000      -0.252806        -6.8792
  80   0.0000       0.002826         0.0769
  81   0.0000       0.016929         0.4607
  82   0.0000       0.035708         0.9717
  83   0.0000       0.036069         0.9815
  84   0.0000       0.053660         1.4602

MULLIKEN ATOMIC CHARGES
-----------------------
   0 O :   -0.339384
   1 H :    0.167709
   2 H :    0.184708
   3 O :   -0.327157
   4 H :    0.167400
   5 H :    0.134502
   6 O :   -0.322903
   7 H :    0.184639
   8 H :    0.133753
   9 O :   -0.308606
  10 H :    0.173448
  11 H :    0.150059
  12 O :   -0.340707
  13 H :    0.185417
  14 H :    0.168702
  15 O :   -0.339445
  16 H :    0.185869
  17 H :    0.169077
  18 O :   -0.328149
  19 H :    0.169147
  20 H :    0.134570
  21 O :   -0.305133
  22 H :    0.174462
  23 H :    0.149937
  24 O :   -0.336744
  25 H :    0.164842
  26 H :    0.185479
  27 O :   -0.329136
  28 H :    0.170187
  29 H :    0.132987
  30 O :   -0.306751
  31 H :    0.174785
  32 H :    0.147235
  33 O :   -0.324259
  34 H :    0.186861
  35 H :    0.131608
  36 O :   -0.324767
  37 H :    0.131355
  38 H :    0.187448
  39 O :   -0.307680
  40 H :    0.174026
  41 H :    0.149870
  42 O :   -0.324564
  43 H :    0.186489
  44 H :    0.133833
  45 O :   -0.328927
  46 H :    0.170288
  47 H :    0.133622
Sum of atomic charges:   -0.0000000

LOEWDIN ATOMIC CHARGES
----------------------
   0 O :   -0.102486
   1 H :    0.029906
   2 H :    0.086439
   3 O :   -0.094337
   4 H :    0.042706
   5 H :    0.026800
   6 O :   -0.088889
   7 H :    0.055945
   8 H :    0.027589
   9 O :   -0.080594
  10 H :    0.053712
  11 H :    0.041137
  12 O :   -0.103358
  13 H :    0.086702
  14 H :    0.030589
  15 O :   -0.102133
  16 H :    0.086996
  17 H :    0.030093
  18 O :   -0.095807
  19 H :    0.044482
  20 H :    0.026586
  21 O :   -0.078581
  22 H :    0.053942
  23 H :    0.041318
  24 O :   -0.103208
  25 H :    0.029747
  26 H :    0.086688
  27 O :   -0.095704
  28 H :    0.044251
  29 H :    0.025932
  30 O :   -0.078912
  31 H :    0.053663
  32 H :    0.040552
  33 O :   -0.088444
  34 H :    0.057005
  35 H :    0.026950
  36 O :   -0.089300
  37 H :    0.027189
  38 H :    0.056665
  39 O :   -0.078981
  40 H :    0.053590
  41 H :    0.041338
  42 O :   -0.087852
  43 H :    0.056645
  44 H :    0.027648
  45 O :   -0.095366
  46 H :    0.044478
  47 H :    0.026669

  Mayer bond orders larger than 0.1
B(  0-O ,  1-H ) :   0.7665 B(  0-O ,  2-H ) :   0.9760 B(  0-O , 11-H ) :   0.1893
B(  0-O , 28-H ) :   0.1897 B(  1-H , 39-O ) :   0.3064 B(  3-O ,  4-H ) :   0.8738
B(  3-O ,  5-H ) :   0.8281 B(  3-O ,  7-H ) :   0.1575 B(  3-O , 35-H ) :   0.2615
B(  4-H , 15-O ) :   0.1966 B(  5-H , 36-O ) :   0.2559 B(  6-O ,  7-H ) :   0.8916
B(  6-O ,  8-H ) :   0.8288 B(  6-O , 10-H ) :   0.1509 B(  6-O , 47-H ) :   0.2571
B(  8-H , 27-O ) :   0.2586 B(  9-O , 10-H ) :   0.9100 B(  9-O , 11-H ) :   0.8970
B(  9-O , 14-H ) :   0.3058 B( 12-O , 13-H ) :   0.9753 B( 12-O , 14-H ) :   0.7668
B( 12-O , 41-H ) :   0.1887 B( 12-O , 46-H ) :   0.1894 B( 15-O , 16-H ) :   0.9750
B( 15-O , 17-H ) :   0.7643 B( 15-O , 23-H ) :   0.1881 B( 17-H , 30-O ) :   0.3073
B( 18-O , 19-H ) :   0.8766 B( 18-O , 20-H ) :   0.8277 B( 18-O , 37-H ) :   0.2582
B( 18-O , 43-H ) :   0.1561 B( 19-H , 24-O ) :   0.1918 B( 20-H , 33-O ) :   0.2558
B( 21-O , 22-H ) :   0.9109 B( 21-O , 23-H ) :   0.8971 B( 21-O , 25-H ) :   0.3078
B( 22-H , 33-O ) :   0.1492 B( 24-O , 25-H ) :   0.7657 B( 24-O , 26-H ) :   0.9759
B( 24-O , 32-H ) :   0.1921 B( 27-O , 28-H ) :   0.8767 B( 27-O , 29-H ) :   0.8266
B( 27-O , 38-H ) :   0.1550 B( 29-H , 42-O ) :   0.2557 B( 30-O , 31-H ) :   0.9106
B( 30-O , 32-H ) :   0.8953 B( 31-H , 36-O ) :   0.1491 B( 33-O , 34-H ) :   0.8933
B( 33-O , 35-H ) :   0.8269 B( 34-H , 45-O ) :   0.1535 B( 36-O , 37-H ) :   0.8289
B( 36-O , 38-H ) :   0.8915 B( 39-O , 40-H ) :   0.9101 B( 39-O , 41-H ) :   0.8970
B( 40-H , 42-O ) :   0.1515 B( 42-O , 43-H ) :   0.8919 B( 42-O , 44-H ) :   0.8274
B( 44-H , 45-O ) :   0.2594 B( 45-O , 46-H ) :   0.8771 B( 45-O , 47-H ) :   0.8272

Dispersion correction           -0.058761813
FINAL SINGLE POINT ENERGY     -1222.267710122945

DIPOLE MOMENT
-------------
                                X             Y             Z
Electronic contribution:     -0.01089       0.00111       0.01332
Nuclear contribution   :      0.01397      -0.00909      -0.00694
                        -----------------------------------------
Total Dipole Moment    :      0.00308      -0.00798       0.00638
                        -----------------------------------------
Magnitude (a.u.)       :      0.01067
Magnitude (Debye)      :      0.02713

                             ****ORCA TERMINATED NORMALLY****
TOTAL RUN TIME: 0 days 0 hours 26 minutes 5 seconds 463 msec
