                         Program Version 4.2.0 -  RELEASE  -
|  1> # 12h2o.su.etal.mol3,5,6,7,8,10
|  2> ! MP2 def2-TZVP EnGrad TightSCF
|  3>
|  4> %pal
|  5>     nprocs 6
|  6> end
|  7>
|  8> %maxcore 8000
|  9>
| 10> %scf
| 11>     ConvForced true
| 12> end
| 13>
| 14> *xyz 0 1
| 15> O  -1.752130000  -0.741530000  -2.896280000
| 16> H  -2.036450000  -0.920500000  -1.984040000
| 17> H  -0.921210000  -1.242140000  -2.984230000
| 18> O   0.885520000  -1.737840000   0.052730000
| 19> H   1.284090000  -0.839590000   0.017130000
| 20> H   1.032320000  -2.090180000  -0.841890000
| 21> O   1.737840000   0.885520000  -0.052730000
| 22> H   2.090180000   1.032320000   0.841890000
| 23> H   0.839590000   1.284090000  -0.017130000
| 24> O  -1.737840000  -0.885520000  -0.052730000
| 25> H  -2.090180000  -1.032320000   0.841890000
| 26> H  -0.839590000  -1.284090000  -0.017130000
| 27> O   1.752130000   0.741530000  -2.896280000
| 28> H   2.036450000   0.920500000  -1.984040000
| 29> H   0.921210000   1.242140000  -2.984230000
| 30> O  -0.923410000   1.794470000  -2.768350000
| 31> H  -1.359750000   2.338250000  -3.430940000
| 32> H  -1.303000000   0.879480000  -2.865760000
| 33> *
| 34>
| 35>                          ****END OF INPUT****

CARTESIAN COORDINATES (ANGSTROEM)
---------------------------------
  O     -1.752130   -0.741530   -2.896280
  H     -2.036450   -0.920500   -1.984040
  H     -0.921210   -1.242140   -2.984230
  O      0.885520   -1.737840    0.052730
  H      1.284090   -0.839590    0.017130
  H      1.032320   -2.090180   -0.841890
  O      1.737840    0.885520   -0.052730
  H      2.090180    1.032320    0.841890
  H      0.839590    1.284090   -0.017130
  O     -1.737840   -0.885520   -0.052730
  H     -2.090180   -1.032320    0.841890
  H     -0.839590   -1.284090   -0.017130
  O      1.752130    0.741530   -2.896280
  H      2.036450    0.920500   -1.984040
  H      0.921210    1.242140   -2.984230
  O     -0.923410    1.794470   -2.768350
  H     -1.359750    2.338250   -3.430940
  H     -1.303000    0.879480   -2.865760

 Total Charge           Charge          ....    0
 Multiplicity           Mult            ....    1
 Number of Electrons    NEL             ....   60
 Basis Dimension        Dim             ....  258

ORBITAL ENERGIES
----------------

  NO   OCC          E(Eh)            E(eV)
   0   2.0000     -20.617816      -561.0393
   1   2.0000     -20.575734      -559.8942
   2   2.0000     -20.568794      -559.7053
   3   2.0000     -20.561540      -559.5079
   4   2.0000     -20.537000      -558.8402
   5   2.0000     -20.513844      -558.2101
   6   2.0000      -1.401354       -38.1328
   7   2.0000      -1.364172       -37.1210
   8   2.0000      -1.358627       -36.9701
   9   2.0000      -1.340679       -36.4817
  10   2.0000      -1.320722       -35.9387
  11   2.0000      -1.298192       -35.3256
  12   2.0000      -0.757953       -20.6249
  13   2.0000      -0.730559       -19.8795
  14   2.0000      -0.723479       -19.6869
  15   2.0000      -0.711562       -19.3626
  16   2.0000      -0.704372       -19.1669
  17   2.0000      -0.680327       -18.5126
  18   2.0000      -0.638326       -17.3697
  19   2.0000      -0.617187       -16.7945
  20   2.0000      -0.605365       -16.4728
  21   2.0000      -0.583440       -15.8762
  22   2.0000      -0.564758       -15.3678
  23   2.0000      -0.551459       -15.0060
  24   2.0000      -0.533524       -14.5179
  25   2.0000      -0.519233       -14.1290
  26   2.0000      -0.511376       -13.9153
  27   2.0000      -0.504438       -13.7264
  28   2.0000      -0.485069       -13.1994
  29   2.0000      -0.463627       -12.6159
  30   0.0000       0.093053         2.5321
  31   0.0000       0.126462         3.4412
  32   0.0000       0.150649         4.0994
  33   0.0000       0.158268         4.3067
  34   0.0000       0.196431         5.3451

MULLIKEN ATOMIC CHARGES
-----------------------
   0 O :   -0.700072
   1 H :    0.390499
   2 H :    0.343830
   3 O :   -0.710532
   4 H :    0.372232
   5 H :    0.351520
   6 O :   -0.715844
   7 H :    0.365989
   8 H :    0.381666
   9 O :   -0.733649
  10 H :    0.343509
  11 H :    0.354401
  12 O :   -0.733076
  13 H :    0.358425
  14 H :    0.353101
  15 O :   -0.745223
  16 H :    0.337756
  17 H :    0.385467
Sum of atomic charges:    0.0000000

LOEWDIN ATOMIC CHARGES
----------------------
   0 O :   -0.275910
   1 H :    0.160669
   2 H :    0.167058
   3 O :   -0.306766
   4 H :    0.145784
   5 H :    0.167014
   6 O :   -0.274671
   7 H :    0.176430
   8 H :    0.188041
   9 O :   -0.344291
  10 H :    0.166008
  11 H :    0.141599
  12 O :   -0.356198
  13 H :    0.144722
  14 H :    0.143467
  15 O :   -0.343418
  16 H :    0.154155
  17 H :    0.146307

  Mayer bond orders larger than 0.100000
B(  0-O ,  1-H ) :   0.7938 B(  0-O ,  2-H ) :   0.8418 B(  3-O ,  4-H ) :   0.7804
B(  3-O ,  5-H ) :   0.8402 B(  3-O , 11-H ) :   0.1053 B(  6-O ,  7-H ) :   0.8294
B(  6-O ,  8-H ) :   0.8115 B(  9-O , 10-H ) :   0.8470 B(  9-O , 11-H ) :   0.7699
B( 12-O , 13-H ) :   0.8364 B( 12-O , 14-H ) :   0.8094 B( 15-O , 16-H ) :   0.8503
B( 15-O , 17-H ) :   0.7538

MP2 TOTAL ENERGY:     -457.935612971 Eh
FINAL SINGLE POINT ENERGY      -457.935612971386

DIPOLE MOMENT
-------------
                                X             Y             Z
Electronic contribution:      0.07657      -0.07545       0.06107
Nuclear contribution   :     -0.22520       0.14541       1.51390
                        -----------------------------------------
Total Dipole Moment    :     -0.14863       0.06997       1.57497
                        -----------------------------------------
Magnitude (a.u.)       :      1.58351
Magnitude (Debye)      :      4.02496

Rotational constants in cm-1:     0.049406     0.045739     0.030234
Rotational constants in MHz :  1481.168063  1371.216243   906.403505

                             ****ORCA TERMINATED NORMALLY****
TOTAL RUN TIME: 0 days 0 hours 1 minutes 14 seconds 229 msec
