                         Program Version 4.2.0 -  RELEASE  -
|  1> # 12h2o.su.etal.mol0,2,3,4,5,6,7,8,9,10
|  2> ! MP2 def2-TZVP EnGrad TightSCF
|  3>
|  4> %pal
|  5>     nprocs 6
|  6> end
|  7>
|  8> %maxcore 8000
|  9>
| 10> %scf
| 11>     ConvForced true
| 12> end
| 13>
| 14> *xyz 0 1
| 15> O   1.794470000   0.923410000   2.768350000
| 16> H   2.338250000   1.359750000   3.430940000
| 17> H   0.879480000   1.303000000   2.865760000
| 18> O   0.923410000  -1.794470000  -2.768350000
| 19> H   1.359750000  -2.338250000  -3.430940000
| 20> H   1.303000000  -0.879480000  -2.865760000
| 21> O  -1.752130000  -0.741530000  -2.896280000
| 22> H  -2.036450000  -0.920500000  -1.984040000
| 23> H  -0.921210000  -1.242140000  -2.984230000
| 24> O  -0.885520000   1.737840000   0.052730000
| 25> H  -1.032320000   2.090180000  -0.841890000
| 26> H  -1.284090000   0.839590000   0.017130000
| 27> O   0.885520000  -1.737840000   0.052730000
| 28> H   1.284090000  -0.839590000   0.017130000
| 29> H   1.032320000  -2.090180000  -0.841890000
| 30> O   1.737840000   0.885520000  -0.052730000
| 31> H   2.090180000   1.032320000   0.841890000
| 32> H   0.839590000   1.284090000  -0.017130000
| 33> O  -1.737840000  -0.885520000  -0.052730000
| 34> H  -2.090180000  -1.032320000   0.841890000
| 35> H  -0.839590000  -1.284090000  -0.017130000
| 36> O   1.752130000   0.741530000  -2.896280000
| 37> H   2.036450000   0.920500000  -1.984040000
| 38> H   0.921210000   1.242140000  -2.984230000
| 39> O   0.741530000  -1.752130000   2.896280000
| 40> H   0.920500000  -2.036450000   1.984040000
| 41> H   1.242140000  -0.921210000   2.984230000
| 42> O  -0.923410000   1.794470000  -2.768350000
| 43> H  -1.359750000   2.338250000  -3.430940000
| 44> H  -1.303000000   0.879480000  -2.865760000
| 45> *
| 46>
| 47>                          ****END OF INPUT****

CARTESIAN COORDINATES (ANGSTROEM)
---------------------------------
  O      1.794470    0.923410    2.768350
  H      2.338250    1.359750    3.430940
  H      0.879480    1.303000    2.865760
  O      0.923410   -1.794470   -2.768350
  H      1.359750   -2.338250   -3.430940
  H      1.303000   -0.879480   -2.865760
  O     -1.752130   -0.741530   -2.896280
  H     -2.036450   -0.920500   -1.984040
  H     -0.921210   -1.242140   -2.984230
  O     -0.885520    1.737840    0.052730
  H     -1.032320    2.090180   -0.841890
  H     -1.284090    0.839590    0.017130
  O      0.885520   -1.737840    0.052730
  H      1.284090   -0.839590    0.017130
  H      1.032320   -2.090180   -0.841890
  O      1.737840    0.885520   -0.052730
  H      2.090180    1.032320    0.841890
  H      0.839590    1.284090   -0.017130
  O     -1.737840   -0.885520   -0.052730
  H     -2.090180   -1.032320    0.841890
  H     -0.839590   -1.284090   -0.017130
  O      1.752130    0.741530   -2.896280
  H      2.036450    0.920500   -1.984040
  H      0.921210    1.242140   -2.984230
  O      0.741530   -1.752130    2.896280
  H      0.920500   -2.036450    1.984040
  H      1.242140   -0.921210    2.984230
  O     -0.923410    1.794470   -2.768350
  H     -1.359750    2.338250   -3.430940
  H     -1.303000    0.879480   -2.865760

 Total Charge           Charge          ....    0
 Multiplicity           Mult            ....    1
 Number of Electrons    NEL             ....  100
 Basis Dimension        Dim             ....  430

ORBITAL ENERGIES
----------------

  NO   OCC          E(Eh)            E(eV)
   0   2.0000     -20.613411      -560.9194
   1   2.0000     -20.577009      -559.9289
   2   2.0000     -20.568493      -559.6972
   3   2.0000     -20.567623      -559.6735
   4   2.0000     -20.562017      -559.5209
   5   2.0000     -20.556316      -559.3658
   6   2.0000     -20.554975      -559.3293
   7   2.0000     -20.554356      -559.3125
   8   2.0000     -20.546567      -559.1005
   9   2.0000     -20.514981      -558.2410
  10   2.0000      -1.394021       -37.9332
  11   2.0000      -1.374384       -37.3989
  12   2.0000      -1.364649       -37.1340
  13   2.0000      -1.359953       -37.0062
  14   2.0000      -1.356333       -36.9077
  15   2.0000      -1.343893       -36.5692
  16   2.0000      -1.340701       -36.4823
  17   2.0000      -1.336121       -36.3577
  18   2.0000      -1.326321       -36.0910
  19   2.0000      -1.300077       -35.3769
  20   2.0000      -0.759338       -20.6626
  21   2.0000      -0.734926       -19.9984
  22   2.0000      -0.733145       -19.9499
  23   2.0000      -0.731888       -19.9157
  24   2.0000      -0.726362       -19.7653
  25   2.0000      -0.718379       -19.5481
  26   2.0000      -0.714275       -19.4364
  27   2.0000      -0.708930       -19.2910
  28   2.0000      -0.706170       -19.2159
  29   2.0000      -0.679517       -18.4906
  30   2.0000      -0.648196       -17.6383
  31   2.0000      -0.633214       -17.2306
  32   2.0000      -0.615145       -16.7389
  33   2.0000      -0.613318       -16.6892
  34   2.0000      -0.602788       -16.4027
  35   2.0000      -0.594733       -16.1835
  36   2.0000      -0.583426       -15.8758
  37   2.0000      -0.577897       -15.7254
  38   2.0000      -0.561796       -15.2872
  39   2.0000      -0.544471       -14.8158
  40   2.0000      -0.530592       -14.4381
  41   2.0000      -0.520242       -14.1565
  42   2.0000      -0.516246       -14.0478
  43   2.0000      -0.514477       -13.9996
  44   2.0000      -0.511216       -13.9109
  45   2.0000      -0.503452       -13.6996
  46   2.0000      -0.502292       -13.6680
  47   2.0000      -0.500695       -13.6246
  48   2.0000      -0.494527       -13.4568
  49   2.0000      -0.464804       -12.6480
  50   0.0000       0.098509         2.6806
  51   0.0000       0.123524         3.3613
  52   0.0000       0.144967         3.9447
  53   0.0000       0.148543         4.0421
  54   0.0000       0.183005         4.9798

MULLIKEN ATOMIC CHARGES
-----------------------
   0 O :   -0.719409
   1 H :    0.365371
   2 H :    0.379277
   3 O :   -0.762809
   4 H :    0.352674
   5 H :    0.386586
   6 O :   -0.723917
   7 H :    0.387544
   8 H :    0.371328
   9 O :   -0.737986
  10 H :    0.378552
  11 H :    0.359220
  12 O :   -0.756198
  13 H :    0.363497
  14 H :    0.382635
  15 O :   -0.759445
  16 H :    0.381030
  17 H :    0.364664
  18 O :   -0.749949
  19 H :    0.365871
  20 H :    0.377908
  21 O :   -0.725812
  22 H :    0.388542
  23 H :    0.370646
  24 O :   -0.727292
  25 H :    0.370482
  26 H :    0.342332
  27 O :   -0.761419
  28 H :    0.351628
  29 H :    0.384446
Sum of atomic charges:    0.0000000

LOEWDIN ATOMIC CHARGES
----------------------
   0 O :   -0.288065
   1 H :    0.168481
   2 H :    0.195183
   3 O :   -0.317371
   4 H :    0.160123
   5 H :    0.146675
   6 O :   -0.285690
   7 H :    0.156693
   8 H :    0.150276
   9 O :   -0.320314
  10 H :    0.149650
  11 H :    0.139099
  12 O :   -0.300725
  13 H :    0.141403
  14 H :    0.151397
  15 O :   -0.303518
  16 H :    0.151714
  17 H :    0.141978
  18 O :   -0.298374
  19 H :    0.173861
  20 H :    0.147000
  21 O :   -0.287133
  22 H :    0.156081
  23 H :    0.149922
  24 O :   -0.355386
  25 H :    0.148485
  26 H :    0.139812
  27 O :   -0.317194
  28 H :    0.159511
  29 H :    0.146426

  Mayer bond orders larger than 0.100000
B(  0-O ,  1-H ) :   0.8316 B(  0-O ,  2-H ) :   0.8139 B(  3-O ,  4-H ) :   0.8394
B(  3-O ,  5-H ) :   0.7227 B(  5-H , 21-O ) :   0.1267 B(  6-O ,  7-H ) :   0.8030
B(  6-O ,  8-H ) :   0.7960 B(  6-O , 29-H ) :   0.1251 B(  9-O , 10-H ) :   0.8021
B(  9-O , 11-H ) :   0.7805 B(  9-O , 17-H ) :   0.1238 B( 12-O , 13-H ) :   0.7596
B( 12-O , 14-H ) :   0.7953 B( 12-O , 20-H ) :   0.1116 B( 13-H , 15-O ) :   0.1022
B( 15-O , 16-H ) :   0.8044 B( 15-O , 17-H ) :   0.7470 B( 18-O , 19-H ) :   0.8295
B( 18-O , 20-H ) :   0.7448 B( 21-O , 22-H ) :   0.7999 B( 21-O , 23-H ) :   0.7965
B( 24-O , 25-H ) :   0.8200 B( 24-O , 26-H ) :   0.8357 B( 27-O , 28-H ) :   0.8398
B( 27-O , 29-H ) :   0.7242

MP2 TOTAL ENERGY:     -763.277315470 Eh
FINAL SINGLE POINT ENERGY      -763.277315470321

DIPOLE MOMENT
-------------
                                X             Y             Z
Electronic contribution:      0.03464      -0.02057      -0.02814
Nuclear contribution   :      0.25668       1.13412       0.05351
                        -----------------------------------------
Total Dipole Moment    :      0.29132       1.11355       0.02537
                        -----------------------------------------
Magnitude (a.u.)       :      1.15130
Magnitude (Debye)      :      2.92638

Rotational constants in cm-1:     0.026640     0.014600     0.013942
Rotational constants in MHz :   798.651444   437.697633   417.968766

                             ****ORCA TERMINATED NORMALLY****
TOTAL RUN TIME: 0 days 0 hours 7 minutes 57 seconds 645 msec
