                         Program Version 4.2.0 -  RELEASE  -
|  1> # 12mecn.remya.etal.2.mol4,8,10
|  2> ! MP2 def2-TZVP EnGrad TightSCF
|  3>
|  4> %pal
|  5>     nprocs 6
|  6> end
|  7>
|  8> %maxcore 8000
|  9>
| 10> %scf
| 11>     ConvForced true
| 12> end
| 13>
| 14> *xyz 0 1
| 15> C  -1.509690000  -0.693960000  -1.610140000
| 16> H  -1.327010000  -1.692700000  -2.017370000
| 17> H  -0.742170000  -0.000650000  -1.964400000
| 18> H  -2.491920000  -0.334310000  -1.929350000
| 19> C  -1.473570000  -0.748120000  -0.167200000
| 20> N  -1.447490000  -0.793720000   0.998938000
| 21> C   1.912641000  -2.468050000  -1.750510000
| 22> H   2.876947000  -2.793500000  -2.151200000
| 23> H   1.688016000  -1.463720000  -2.122170000
| 24> H   1.123460000  -3.154780000  -2.069590000
| 25> C   1.977850000  -2.444240000  -0.306900000
| 26> N   2.036566000  -2.426130000   0.858249000
| 27> C   4.602033000   0.321019000  -1.784800000
| 28> H   4.827650000  -0.662160000  -2.207910000
| 29> H   5.320558000   1.057980000  -2.148500000
| 30> H   3.601982000   0.643751000  -2.087520000
| 31> C   4.654967000   0.244048000  -0.343060000
| 32> N   4.691648000   0.166590000   0.820757000
| 33> *
| 34>
| 35>                          ****END OF INPUT****

CARTESIAN COORDINATES (ANGSTROEM)
---------------------------------
  C     -1.509690   -0.693960   -1.610140
  H     -1.327010   -1.692700   -2.017370
  H     -0.742170   -0.000650   -1.964400
  H     -2.491920   -0.334310   -1.929350
  C     -1.473570   -0.748120   -0.167200
  N     -1.447490   -0.793720    0.998938
  C      1.912641   -2.468050   -1.750510
  H      2.876947   -2.793500   -2.151200
  H      1.688016   -1.463720   -2.122170
  H      1.123460   -3.154780   -2.069590
  C      1.977850   -2.444240   -0.306900
  N      2.036566   -2.426130    0.858249
  C      4.602033    0.321019   -1.784800
  H      4.827650   -0.662160   -2.207910
  H      5.320558    1.057980   -2.148500
  H      3.601982    0.643751   -2.087520
  C      4.654967    0.244048   -0.343060
  N      4.691648    0.166590    0.820757

 Total Charge           Charge          ....    0
 Multiplicity           Mult            ....    1
 Number of Electrons    NEL             ....   66
 Basis Dimension        Dim             ....  333

ORBITAL ENERGIES
----------------

  NO   OCC          E(Eh)            E(eV)
   0   2.0000     -15.572955      -423.7617
   1   2.0000     -15.572217      -423.7416
   2   2.0000     -15.571352      -423.7180
   3   2.0000     -11.295362      -307.3624
   4   2.0000     -11.292527      -307.2853
   5   2.0000     -11.291802      -307.2655
   6   2.0000     -11.277452      -306.8751
   7   2.0000     -11.276566      -306.8510
   8   2.0000     -11.274176      -306.7859
   9   2.0000      -1.212780       -33.0014
  10   2.0000      -1.212215       -32.9860
  11   2.0000      -1.210177       -32.9306
  12   2.0000      -1.052447       -28.6385
  13   2.0000      -1.049476       -28.5577
  14   2.0000      -1.048073       -28.5195
  15   2.0000      -0.707082       -19.2407
  16   2.0000      -0.704100       -19.1595
  17   2.0000      -0.702703       -19.1215
  18   2.0000      -0.648742       -17.6532
  19   2.0000      -0.646044       -17.5798
  20   2.0000      -0.640830       -17.4379
  21   2.0000      -0.638919       -17.3859
  22   2.0000      -0.633099       -17.2275
  23   2.0000      -0.632013       -17.1980
  24   2.0000      -0.553649       -15.0655
  25   2.0000      -0.552813       -15.0428
  26   2.0000      -0.549519       -14.9532
  27   2.0000      -0.463254       -12.6058
  28   2.0000      -0.460925       -12.5424
  29   2.0000      -0.456276       -12.4159
  30   2.0000      -0.455707       -12.4004
  31   2.0000      -0.448544       -12.2055
  32   2.0000      -0.445834       -12.1318
  33   0.0000       0.080409         2.1880
  34   0.0000       0.120016         3.2658
  35   0.0000       0.125162         3.4058
  36   0.0000       0.147478         4.0131
  37   0.0000       0.153850         4.1865

MULLIKEN ATOMIC CHARGES
-----------------------
   0 C :   -0.287137
   1 H :    0.163060
   2 H :    0.163597
   3 H :    0.183231
   4 C :   -0.152111
   5 N :   -0.070369
   6 C :   -0.294075
   7 H :    0.176912
   8 H :    0.153458
   9 H :    0.179274
  10 C :   -0.158293
  11 N :   -0.057727
  12 C :   -0.283265
  13 H :    0.163614
  14 H :    0.182966
  15 H :    0.160182
  16 C :   -0.155106
  17 N :   -0.068211
Sum of atomic charges:    0.0000000

LOEWDIN ATOMIC CHARGES
----------------------
   0 C :   -0.288774
   1 H :    0.148206
   2 H :    0.148472
   3 H :    0.154084
   4 C :   -0.225305
   5 N :    0.063376
   6 C :   -0.292445
   7 H :    0.150823
   8 H :    0.144200
   9 H :    0.150944
  10 C :   -0.228959
  11 N :    0.075262
  12 C :   -0.288766
  13 H :    0.149050
  14 H :    0.152501
  15 H :    0.148168
  16 C :   -0.225476
  17 N :    0.064639

  Mayer bond orders larger than 0.100000
B(  0-C ,  1-H ) :   0.9199 B(  0-C ,  2-H ) :   0.9242 B(  0-C ,  3-H ) :   0.9115
B(  0-C ,  4-C ) :   0.8961 B(  4-C ,  5-N ) :   2.8246 B(  6-C ,  7-H ) :   0.9175
B(  6-C ,  8-H ) :   0.9249 B(  6-C ,  9-H ) :   0.9174 B(  6-C , 10-C ) :   0.8912
B( 10-C , 11-N ) :   2.8105 B( 12-C , 13-H ) :   0.9205 B( 12-C , 14-H ) :   0.9117
B( 12-C , 15-H ) :   0.9240 B( 12-C , 16-C ) :   0.8981 B( 16-C , 17-N ) :   2.8234

MP2 TOTAL ENERGY:     -397.444192267 Eh
FINAL SINGLE POINT ENERGY      -397.444192266890

DIPOLE MOMENT
-------------
                                X             Y             Z
Electronic contribution:      0.36172      -0.27464       9.69951
Nuclear contribution   :     -0.51049       0.39840     -13.88970
                        -----------------------------------------
Total Dipole Moment    :     -0.14877       0.12376      -4.19020
                        -----------------------------------------
Magnitude (a.u.)       :      4.19466
Magnitude (Debye)      :     10.66198

Rotational constants in cm-1:     0.056109     0.017986     0.017656
Rotational constants in MHz :  1682.090891   539.207598   529.315989

                             ****ORCA TERMINATED NORMALLY****
TOTAL RUN TIME: 0 days 0 hours 3 minutes 36 seconds 155 msec
