                         Program Version 3.0.3 - RELEASE   -
|  1> ! B3LYP Def2-SVP def2-SVP/J RIJCOSX TightSCF Grid4 D3BJ COSMO OPT
|  2>
|  3> %pal nprocs 12 end
|  4>
|  5> %scf
|  6>         maxiter 800
|  7> end
|  8>
|  9> %cosmo
| 10>         SMD true
| 11>         solvent "WATER"
| 12> end
| 13>
| 14> * xyz  0  1
| 15> O  -0.05783621	-1.04237199	-0.56841322
| 16> H  0.11456881	-0.74470054	-1.46166574
| 17> H  0.49967732	-1.81292280	-0.46042258
| 18> O  0.12905323	1.34046811	0.86259881
| 19> H  0.04878069	0.49667135	0.41785709
| 20> H  -0.77313272	1.60007710	1.04940226
| 21> **                         ****END OF INPUT****
 Total Charge           Charge          ....    0
 Multiplicity           Mult            ....    1
 Number of Electrons    NEL             ....   20
Dispersion correction           -0.002237632
FINAL SINGLE POINT ENERGY      -152.677253530083
Dispersion correction            ...
Dispersion correction           -0.002221158
FINAL SINGLE POINT ENERGY      -152.678113109973
Dispersion correction            ...
Dispersion correction           -0.002234767
FINAL SINGLE POINT ENERGY      -152.678193118157
Dispersion correction            ...
FINAL SINGLE POINT ENERGY      -152.678266450896
FINAL SINGLE POINT ENERGY      -152.678307686693
FINAL SINGLE POINT ENERGY      -152.678413074857
FINAL SINGLE POINT ENERGY      -152.678456259581
FINAL SINGLE POINT ENERGY      -152.678539035979
FINAL SINGLE POINT ENERGY      -152.678621224986
FINAL SINGLE POINT ENERGY      -152.678636206689
FINAL SINGLE POINT ENERGY      -152.678833271287
FINAL SINGLE POINT ENERGY      -152.678837245925
FINAL SINGLE POINT ENERGY      -152.678837774924
FINAL SINGLE POINT ENERGY      -152.678839221238
FINAL SINGLE POINT ENERGY      -152.678829670577
FINAL SINGLE POINT ENERGY      -152.678823856723
FINAL SINGLE POINT ENERGY      -152.678833201802
Dispersion correction            ...
Dispersion correction           -0.002299587
FINAL SINGLE POINT ENERGY      -152.678840520277
Dispersion correction            ...
Dispersion correction           -0.002299085
FINAL SINGLE POINT ENERGY      -152.678844179160
Dispersion correction            ...
                    ***********************HURRAY********************

CARTESIAN COORDINATES (ANGSTROEM)
---------------------------------
  O     -0.165161   -0.992666   -0.645176
  H      0.241978   -0.810154   -1.507569
  H      0.427574   -1.655835   -0.257698
  O      0.133623    1.357521    0.769269
  H      0.044747    0.520417    0.260333
  H     -0.721650    1.417937    1.220198

 Multiplicity           Mult            ....    1
 Number of Electrons    NEL             ....   20
 Basis Dimension        Dim             ....   48

ORBITAL ENERGIES
----------------

  NO   OCC          E(Eh)            E(eV)
   0   2.0000     -19.137292      -520.7522
   1   2.0000     -19.096961      -519.6547
   2   2.0000      -0.993373       -27.0311
   3   2.0000      -0.953742       -25.9526
   4   2.0000      -0.517961       -14.0944
   5   2.0000      -0.490178       -13.3384
   6   2.0000      -0.398135       -10.8338
   7   2.0000      -0.358750        -9.7621
   8   2.0000      -0.309757        -8.4289
   9   2.0000      -0.281381        -7.6568
  10   0.0000       0.057457         1.5635
  11   0.0000       0.106349         2.8939
  12   0.0000       0.145446         3.9578
  13   0.0000       0.245111         6.6698
  14   0.0000       0.549071        14.9410

MULLIKEN ATOMIC CHARGES
-----------------------
   0 O :   -0.319185
   1 H :    0.211924
   2 H :    0.210646
   3 O :   -0.424946
   4 H :    0.136222
   5 H :    0.185340
Sum of atomic charges:   -0.0000000

LOEWDIN ATOMIC CHARGES
----------------------
   0 O :   -0.113719
   1 H :    0.112907
   2 H :    0.112089
   3 O :   -0.235969
   4 H :    0.034636
   5 H :    0.090056

  Mayer bond orders larger than 0.1
B(  0-O ,  1-H ) :   0.9721 B(  0-O ,  2-H ) :   0.9730 B(  0-O ,  4-H ) :   0.1841
B(  3-O ,  4-H ) :   0.9281 B(  3-O ,  5-H ) :   0.9907

Dispersion correction           -0.002299053
FINAL SINGLE POINT ENERGY      -152.678841639123

DIPOLE MOMENT
-------------
                                X             Y             Z
Electronic contribution:     -0.00815      -0.21090      -0.14751
Nuclear contribution   :      0.04638      -1.04656      -0.44358
                        -----------------------------------------
Total Dipole Moment    :      0.03824      -1.25746      -0.59109
                        -----------------------------------------
Magnitude (a.u.)       :      1.38999
Magnitude (Debye)      :      3.53306

                             ****ORCA TERMINATED NORMALLY****
TOTAL RUN TIME: 0 days 0 hours 28 minutes 2 seconds 514 msec
