                         Program Version 3.0.3 - RELEASE   -
|  1> ! B3LYP Def2-SVP def2-SVP/J RIJCOSX TightSCF Grid4 D3BJ OPT
|  2>
|  3> %pal nprocs 12 end
|  4>
|  5> %scf
|  6>         maxiter 400
|  7> end
|  8>
|  9> * xyz  0  1
| 10> O  -0.05783621	-1.04237199	-0.56841322
| 11> H  0.11456881	-0.74470054	-1.46166574
| 12> H  0.49967732	-1.81292280	-0.46042258
| 13> O  0.12905323	1.34046811	0.86259881
| 14> H  0.04878069	0.49667135	0.41785709
| 15> H  -0.77313272	1.60007710	1.04940226
| 16> **                         ****END OF INPUT****
 Total Charge           Charge          ....    0
 Multiplicity           Mult            ....    1
 Number of Electrons    NEL             ....   20
 Basis Dimension        Dim             ....   48

ORBITAL ENERGIES
----------------

  NO   OCC          E(Eh)            E(eV)
   0   2.0000     -19.154087      -521.2092
   1   2.0000     -19.072003      -518.9756
   2   2.0000      -1.018268       -27.7085
   3   2.0000      -0.940066       -25.5805
   4   2.0000      -0.550481       -14.9794
   5   2.0000      -0.483680       -13.1616
   6   2.0000      -0.405748       -11.0410
   7   2.0000      -0.335835        -9.1385
   8   2.0000      -0.315034        -8.5725
   9   2.0000      -0.252842        -6.8802
  10   0.0000       0.027193         0.7399
  11   0.0000       0.100806         2.7431
  12   0.0000       0.109681         2.9846
  13   0.0000       0.247791         6.7427
  14   0.0000       0.532507        14.4902

MULLIKEN ATOMIC CHARGES
-----------------------
   0 O :   -0.252486
   1 H :    0.163640
   2 H :    0.164362
   3 O :   -0.322962
   4 H :    0.113401
   5 H :    0.134045
Sum of atomic charges:    0.0000000

LOEWDIN ATOMIC CHARGES
----------------------
   0 O :   -0.082429
   1 H :    0.081408
   2 H :    0.083455
   3 O :   -0.165669
   4 H :    0.022295
   5 H :    0.060939

  Mayer bond orders larger than 0.1
B(  0-O ,  1-H ) :   0.9942 B(  0-O ,  2-H ) :   0.9956 B(  0-O ,  4-H ) :   0.1403
B(  3-O ,  4-H ) :   0.9688 B(  3-O ,  5-H ) :   1.0124

Dispersion correction           -0.002237632
FINAL SINGLE POINT ENERGY      -152.656546447532
Dispersion correction            ...
Dispersion correction           -0.002189743
FINAL SINGLE POINT ENERGY      -152.657196786407
Dispersion correction            ...
Dispersion correction           -0.002184724
FINAL SINGLE POINT ENERGY      -152.657238274661
Dispersion correction            ...
FINAL SINGLE POINT ENERGY      -152.657302101076
FINAL SINGLE POINT ENERGY      -152.657334717692
FINAL SINGLE POINT ENERGY      -152.657423048147
FINAL SINGLE POINT ENERGY      -152.657470315758
FINAL SINGLE POINT ENERGY      -152.657506114299
FINAL SINGLE POINT ENERGY      -152.657533597918
FINAL SINGLE POINT ENERGY      -152.657575168581
FINAL SINGLE POINT ENERGY      -152.658678307553
FINAL SINGLE POINT ENERGY      -152.658689012703
FINAL SINGLE POINT ENERGY      -152.658700269291
FINAL SINGLE POINT ENERGY      -152.658705415940
FINAL SINGLE POINT ENERGY      -152.658686833945
FINAL SINGLE POINT ENERGY      -152.658688996858
FINAL SINGLE POINT ENERGY      -152.658702385119
Dispersion correction           -0.002400741
FINAL SINGLE POINT ENERGY      -152.658712760765
Dispersion correction            ...
Dispersion correction           -0.002408023
FINAL SINGLE POINT ENERGY      -152.658739261407
Dispersion correction            ...

CARTESIAN COORDINATES (ANGSTROEM)
---------------------------------
  O     -0.174069   -1.233289   -0.652935
  H      0.103241   -0.336228   -0.904363
  H      0.646573   -1.741867   -0.711486
  O      0.161811    1.194798    0.627179
  H     -0.097909    0.280193    0.830635
  H     -0.678537    1.673614    0.650327

Dispersion correction           -0.002401116
FINAL SINGLE POINT ENERGY      -152.658732261113
Dispersion correction            ...

DIPOLE MOMENT
-------------
                                X             Y             Z
Electronic contribution:      0.00308       0.05092       0.05191
Nuclear contribution   :      0.00200      -0.10169      -0.13044
                        -----------------------------------------
Total Dipole Moment    :      0.00508      -0.05077      -0.07852
                        -----------------------------------------
Magnitude (a.u.)       :      0.09364
Magnitude (Debye)      :      0.23802

                             ****ORCA TERMINATED NORMALLY****
TOTAL RUN TIME: 0 days 0 hours 43 minutes 17 seconds 360 msec
