                         Program Version 4.2.0 -  RELEASE  -
|  1> # 12h2o.su.etal.mol0,2,6,7,8,11
|  2> ! MP2 def2-TZVP EnGrad TightSCF
|  3>
|  4> %pal
|  5>     nprocs 6
|  6> end
|  7>
|  8> %maxcore 8000
|  9>
| 10> %scf
| 11>     ConvForced true
| 12> end
| 13>
| 14> *xyz 0 1
| 15> O   1.794470000   0.923410000   2.768350000
| 16> H   2.338250000   1.359750000   3.430940000
| 17> H   0.879480000   1.303000000   2.865760000
| 18> O   0.923410000  -1.794470000  -2.768350000
| 19> H   1.359750000  -2.338250000  -3.430940000
| 20> H   1.303000000  -0.879480000  -2.865760000
| 21> O   1.737840000   0.885520000  -0.052730000
| 22> H   2.090180000   1.032320000   0.841890000
| 23> H   0.839590000   1.284090000  -0.017130000
| 24> O  -1.737840000  -0.885520000  -0.052730000
| 25> H  -2.090180000  -1.032320000   0.841890000
| 26> H  -0.839590000  -1.284090000  -0.017130000
| 27> O   1.752130000   0.741530000  -2.896280000
| 28> H   2.036450000   0.920500000  -1.984040000
| 29> H   0.921210000   1.242140000  -2.984230000
| 30> O  -0.741530000   1.752130000   2.896280000
| 31> H  -0.920500000   2.036450000   1.984040000
| 32> H  -1.242140000   0.921210000   2.984230000
| 33> *
| 34>
| 35>                          ****END OF INPUT****

CARTESIAN COORDINATES (ANGSTROEM)
---------------------------------
  O      1.794470    0.923410    2.768350
  H      2.338250    1.359750    3.430940
  H      0.879480    1.303000    2.865760
  O      0.923410   -1.794470   -2.768350
  H      1.359750   -2.338250   -3.430940
  H      1.303000   -0.879480   -2.865760
  O      1.737840    0.885520   -0.052730
  H      2.090180    1.032320    0.841890
  H      0.839590    1.284090   -0.017130
  O     -1.737840   -0.885520   -0.052730
  H     -2.090180   -1.032320    0.841890
  H     -0.839590   -1.284090   -0.017130
  O      1.752130    0.741530   -2.896280
  H      2.036450    0.920500   -1.984040
  H      0.921210    1.242140   -2.984230
  O     -0.741530    1.752130    2.896280
  H     -0.920500    2.036450    1.984040
  H     -1.242140    0.921210    2.984230

 Total Charge           Charge          ....    0
 Multiplicity           Mult            ....    1
 Number of Electrons    NEL             ....   60
 Basis Dimension        Dim             ....  258

ORBITAL ENERGIES
----------------

  NO   OCC          E(Eh)            E(eV)
   0   2.0000     -20.622602      -561.1695
   1   2.0000     -20.567728      -559.6763
   2   2.0000     -20.564072      -559.5768
   3   2.0000     -20.559832      -559.4615
   4   2.0000     -20.559332      -559.4479
   5   2.0000     -20.501104      -557.8634
   6   2.0000      -1.408018       -38.3141
   7   2.0000      -1.353561       -36.8323
   8   2.0000      -1.346006       -36.6267
   9   2.0000      -1.343410       -36.5560
  10   2.0000      -1.337197       -36.3870
  11   2.0000      -1.283087       -34.9146
  12   2.0000      -0.765215       -20.8226
  13   2.0000      -0.730794       -19.8859
  14   2.0000      -0.718398       -19.5486
  15   2.0000      -0.704951       -19.1827
  16   2.0000      -0.702390       -19.1130
  17   2.0000      -0.671140       -18.2626
  18   2.0000      -0.646290       -17.5864
  19   2.0000      -0.607246       -16.5240
  20   2.0000      -0.592122       -16.1125
  21   2.0000      -0.582672       -15.8553
  22   2.0000      -0.572652       -15.5826
  23   2.0000      -0.547347       -14.8941
  24   2.0000      -0.532499       -14.4900
  25   2.0000      -0.512684       -13.9508
  26   2.0000      -0.508977       -13.8500
  27   2.0000      -0.507507       -13.8100
  28   2.0000      -0.488096       -13.2818
  29   2.0000      -0.451555       -12.2874
  30   0.0000       0.070837         1.9276
  31   0.0000       0.123070         3.3489
  32   0.0000       0.140426         3.8212
  33   0.0000       0.149532         4.0690
  34   0.0000       0.178097         4.8463

MULLIKEN ATOMIC CHARGES
-----------------------
   0 O :   -0.734960
   1 H :    0.341579
   2 H :    0.368187
   3 O :   -0.734850
   4 H :    0.319447
   5 H :    0.370342
   6 O :   -0.707057
   7 H :    0.382472
   8 H :    0.315404
   9 O :   -0.683259
  10 H :    0.318415
  11 H :    0.365596
  12 O :   -0.694943
  13 H :    0.387436
  14 H :    0.340155
  15 O :   -0.672495
  16 H :    0.357830
  17 H :    0.360703
Sum of atomic charges:    0.0000000

LOEWDIN ATOMIC CHARGES
----------------------
   0 O :   -0.338490
   1 H :    0.156250
   2 H :    0.142826
   3 O :   -0.374208
   4 H :    0.146173
   5 H :    0.142990
   6 O :   -0.323228
   7 H :    0.156096
   8 H :    0.158202
   9 O :   -0.336242
  10 H :    0.155554
  11 H :    0.181441
  12 O :   -0.278739
  13 H :    0.158942
  14 H :    0.167454
  15 O :   -0.264540
  16 H :    0.172582
  17 H :    0.176937

  Mayer bond orders larger than 0.100000
B(  0-O ,  1-H ) :   0.8482 B(  0-O ,  2-H ) :   0.7716 B(  3-O ,  4-H ) :   0.8634
B(  3-O ,  5-H ) :   0.7784 B(  6-O ,  7-H ) :   0.7940 B(  6-O ,  8-H ) :   0.8542
B(  9-O , 10-H ) :   0.8614 B(  9-O , 11-H ) :   0.8273 B( 12-O , 13-H ) :   0.7966
B( 12-O , 14-H ) :   0.8477 B( 15-O , 16-H ) :   0.8360 B( 15-O , 17-H ) :   0.8336

MP2 TOTAL ENERGY:     -457.913206901 Eh
FINAL SINGLE POINT ENERGY      -457.913206901350

DIPOLE MOMENT
-------------
                                X             Y             Z
Electronic contribution:     -0.01828       0.15226       0.16791
Nuclear contribution   :     -0.65046       1.09882       1.54856
                        -----------------------------------------
Total Dipole Moment    :     -0.66873       1.25108       1.71646
                        -----------------------------------------
Magnitude (a.u.)       :      2.22680
Magnitude (Debye)      :      5.66008

Rotational constants in cm-1:     0.058793     0.023317     0.018929
Rotational constants in MHz :  1762.578557   699.030488   567.488953

                             ****ORCA TERMINATED NORMALLY****
TOTAL RUN TIME: 0 days 0 hours 1 minutes 25 seconds 198 msec
