                         Program Version 4.2.0 -  RELEASE  -
|  1> # 12meoh.boyd.etal.mol3,8,11
|  2> ! MP2 def2-TZVP EnGrad TightSCF
|  3>
|  4> %pal
|  5>     nprocs 6
|  6> end
|  7>
|  8> %maxcore 8000
|  9>
| 10> %scf
| 11>     ConvForced true
| 12> end
| 13>
| 14> *xyz 0 1
| 15> O  -3.821405976  -2.118091637   0.596795346
| 16> H  -4.342989117  -1.344303030   0.251966383
| 17> C  -3.443883586  -1.809641231   1.934889393
| 18> H  -2.831494349  -2.637429600   2.305201764
| 19> H  -4.325601146  -1.719364371   2.585074667
| 20> H  -2.858527126  -0.882644791   1.996110694
| 21> O   3.570084754   2.361662577  -0.202416728
| 22> H   3.393280933   1.755669977   0.560634073
| 23> C   4.368082883   1.644741793  -1.143112807
| 24> H   4.552851717   2.311801738  -1.989632421
| 25> H   3.862427494   0.740851663  -1.508095690
| 26> H   5.333949674   1.357289092  -0.706288100
| 27> O   3.252955559   0.588596242   1.858934315
| 28> H   3.621209177  -0.251605199   1.476063364
| 29> C   4.040824528   0.944288422   2.989639460
| 30> H   3.670521436   1.902573549   3.363847391
| 31> H   5.103749934   1.055868619   2.734277559
| 32> H   3.948540682   0.200279590   3.792908518
| 33> *
| 34>
| 35>                          ****END OF INPUT****

CARTESIAN COORDINATES (ANGSTROEM)
---------------------------------
  O     -3.821406   -2.118092    0.596795
  H     -4.342989   -1.344303    0.251966
  C     -3.443884   -1.809641    1.934889
  H     -2.831494   -2.637430    2.305202
  H     -4.325601   -1.719364    2.585075
  H     -2.858527   -0.882645    1.996111
  O      3.570085    2.361663   -0.202417
  H      3.393281    1.755670    0.560634
  C      4.368083    1.644742   -1.143113
  H      4.552852    2.311802   -1.989632
  H      3.862427    0.740852   -1.508096
  H      5.333950    1.357289   -0.706288
  O      3.252956    0.588596    1.858934
  H      3.621209   -0.251605    1.476063
  C      4.040825    0.944288    2.989639
  H      3.670521    1.902574    3.363847
  H      5.103750    1.055869    2.734278
  H      3.948541    0.200280    3.792909

 Total Charge           Charge          ....    0
 Multiplicity           Mult            ....    1
 Number of Electrons    NEL             ....   54
 Basis Dimension        Dim             ....  258

ORBITAL ENERGIES
----------------

  NO   OCC          E(Eh)            E(eV)
   0   2.0000     -20.590265      -560.2896
   1   2.0000     -20.556249      -559.3640
   2   2.0000     -20.519998      -558.3775
   3   2.0000     -11.290468      -307.2293
   4   2.0000     -11.270266      -306.6795
   5   2.0000     -11.256634      -306.3086
   6   2.0000      -1.382953       -37.6321
   7   2.0000      -1.345330       -36.6083
   8   2.0000      -1.316303       -35.8184
   9   2.0000      -0.942254       -25.6400
  10   2.0000      -0.917780       -24.9741
  11   2.0000      -0.902868       -24.5683
  12   2.0000      -0.712867       -19.3981
  13   2.0000      -0.679741       -18.4967
  14   2.0000      -0.678520       -18.4635
  15   2.0000      -0.633313       -17.2333
  16   2.0000      -0.616062       -16.7639
  17   2.0000      -0.613523       -16.6948
  18   2.0000      -0.597460       -16.2577
  19   2.0000      -0.588757       -16.0209
  20   2.0000      -0.566221       -15.4077
  21   2.0000      -0.527643       -14.3579
  22   2.0000      -0.499374       -13.5887
  23   2.0000      -0.492037       -13.3890
  24   2.0000      -0.461193       -12.5497
  25   2.0000      -0.448038       -12.1917
  26   2.0000      -0.423389       -11.5210
  27   0.0000       0.112727         3.0675
  28   0.0000       0.136822         3.7231
  29   0.0000       0.158764         4.3202
  30   0.0000       0.176952         4.8151
  31   0.0000       0.177654         4.8342

MULLIKEN ATOMIC CHARGES
-----------------------
   0 O :   -0.495580
   1 H :    0.321654
   2 C :   -0.175306
   3 H :    0.127053
   4 H :    0.108813
   5 H :    0.113365
   6 O :   -0.520757
   7 H :    0.358447
   8 C :   -0.193625
   9 H :    0.128073
  10 H :    0.102793
  11 H :    0.094347
  12 O :   -0.516326
  13 H :    0.340439
  14 C :   -0.192144
  15 H :    0.147550
  16 H :    0.126359
  17 H :    0.124844
Sum of atomic charges:    0.0000000

LOEWDIN ATOMIC CHARGES
----------------------
   0 O :   -0.110001
   1 H :    0.190958
   2 C :   -0.382179
   3 H :    0.109771
   4 H :    0.095259
   5 H :    0.096191
   6 O :   -0.119765
   7 H :    0.159577
   8 C :   -0.395800
   9 H :    0.108315
  10 H :    0.090960
  11 H :    0.088730
  12 O :   -0.076956
  13 H :    0.197404
  14 C :   -0.374659
  15 H :    0.117084
  16 H :    0.101729
  17 H :    0.103381

  Mayer bond orders larger than 0.100000
B(  0-O ,  1-H ) :   0.8426 B(  0-O ,  2-C ) :   0.9265 B(  2-C ,  3-H ) :   0.9378
B(  2-C ,  4-H ) :   0.9390 B(  2-C ,  5-H ) :   0.9384 B(  6-O ,  7-H ) :   0.7960
B(  6-O ,  8-C ) :   0.9439 B(  8-C ,  9-H ) :   0.9429 B(  8-C , 10-H ) :   0.9400
B(  8-C , 11-H ) :   0.9343 B( 12-O , 13-H ) :   0.8294 B( 12-O , 14-C ) :   0.8753
B( 14-C , 15-H ) :   0.9392 B( 14-C , 16-H ) :   0.9365 B( 14-C , 17-H ) :   0.9347

MP2 TOTAL ENERGY:     -346.529172023 Eh
FINAL SINGLE POINT ENERGY      -346.529172022837

DIPOLE MOMENT
-------------
                                X             Y             Z
Electronic contribution:     -2.51898       0.07966      -1.64954
Nuclear contribution   :      3.06428      -0.61371       2.63595
                        -----------------------------------------
Total Dipole Moment    :      0.54531      -0.53406       0.98641
                        -----------------------------------------
Magnitude (a.u.)       :      1.24723
Magnitude (Debye)      :      3.17021

Rotational constants in cm-1:     0.078185     0.011437     0.010229
Rotational constants in MHz :  2343.923042   342.858517   306.664980

                             ****ORCA TERMINATED NORMALLY****
TOTAL RUN TIME: 0 days 0 hours 1 minutes 2 seconds 557 msec
