                         Program Version 4.2.0 -  RELEASE  -
|  1> # 12h2o.su.etal.mol0,1,3,4,8,9,10,11
|  2> ! MP2 def2-TZVP EnGrad TightSCF
|  3>
|  4> %pal
|  5>     nprocs 6
|  6> end
|  7>
|  8> %maxcore 8000
|  9>
| 10> %scf
| 11>     ConvForced true
| 12> end
| 13>
| 14> *xyz 0 1
| 15> O   1.794470000   0.923410000   2.768350000
| 16> H   2.338250000   1.359750000   3.430940000
| 17> H   0.879480000   1.303000000   2.865760000
| 18> O  -1.794470000  -0.923410000   2.768350000
| 19> H  -2.338250000  -1.359750000   3.430940000
| 20> H  -0.879480000  -1.303000000   2.865760000
| 21> O  -1.752130000  -0.741530000  -2.896280000
| 22> H  -2.036450000  -0.920500000  -1.984040000
| 23> H  -0.921210000  -1.242140000  -2.984230000
| 24> O  -0.885520000   1.737840000   0.052730000
| 25> H  -1.032320000   2.090180000  -0.841890000
| 26> H  -1.284090000   0.839590000   0.017130000
| 27> O   1.752130000   0.741530000  -2.896280000
| 28> H   2.036450000   0.920500000  -1.984040000
| 29> H   0.921210000   1.242140000  -2.984230000
| 30> O   0.741530000  -1.752130000   2.896280000
| 31> H   0.920500000  -2.036450000   1.984040000
| 32> H   1.242140000  -0.921210000   2.984230000
| 33> O  -0.923410000   1.794470000  -2.768350000
| 34> H  -1.359750000   2.338250000  -3.430940000
| 35> H  -1.303000000   0.879480000  -2.865760000
| 36> O  -0.741530000   1.752130000   2.896280000
| 37> H  -0.920500000   2.036450000   1.984040000
| 38> H  -1.242140000   0.921210000   2.984230000
| 39> *
| 40>
| 41>                          ****END OF INPUT****

CARTESIAN COORDINATES (ANGSTROEM)
---------------------------------
  O      1.794470    0.923410    2.768350
  H      2.338250    1.359750    3.430940
  H      0.879480    1.303000    2.865760
  O     -1.794470   -0.923410    2.768350
  H     -2.338250   -1.359750    3.430940
  H     -0.879480   -1.303000    2.865760
  O     -1.752130   -0.741530   -2.896280
  H     -2.036450   -0.920500   -1.984040
  H     -0.921210   -1.242140   -2.984230
  O     -0.885520    1.737840    0.052730
  H     -1.032320    2.090180   -0.841890
  H     -1.284090    0.839590    0.017130
  O      1.752130    0.741530   -2.896280
  H      2.036450    0.920500   -1.984040
  H      0.921210    1.242140   -2.984230
  O      0.741530   -1.752130    2.896280
  H      0.920500   -2.036450    1.984040
  H      1.242140   -0.921210    2.984230
  O     -0.923410    1.794470   -2.768350
  H     -1.359750    2.338250   -3.430940
  H     -1.303000    0.879480   -2.865760
  O     -0.741530    1.752130    2.896280
  H     -0.920500    2.036450    1.984040
  H     -1.242140    0.921210    2.984230

 Total Charge           Charge          ....    0
 Multiplicity           Mult            ....    1
 Number of Electrons    NEL             ....   80
 Basis Dimension        Dim             ....  344

ORBITAL ENERGIES
----------------

  NO   OCC          E(Eh)            E(eV)
   0   2.0000     -20.620977      -561.1253
   1   2.0000     -20.579754      -560.0036
   2   2.0000     -20.570117      -559.7413
   3   2.0000     -20.564902      -559.5994
   4   2.0000     -20.551066      -559.2229
   5   2.0000     -20.538114      -558.8705
   6   2.0000     -20.536288      -558.8208
   7   2.0000     -20.536136      -558.8167
   8   2.0000      -1.407260       -38.2935
   9   2.0000      -1.366693       -37.1896
  10   2.0000      -1.362627       -37.0790
  11   2.0000      -1.346627       -36.6436
  12   2.0000      -1.335825       -36.3496
  13   2.0000      -1.330727       -36.2109
  14   2.0000      -1.318393       -35.8753
  15   2.0000      -1.312913       -35.7262
  16   2.0000      -0.763055       -20.7638
  17   2.0000      -0.748138       -20.3579
  18   2.0000      -0.721670       -19.6376
  19   2.0000      -0.718224       -19.5439
  20   2.0000      -0.715931       -19.4815
  21   2.0000      -0.698624       -19.0105
  22   2.0000      -0.692625       -18.8473
  23   2.0000      -0.688687       -18.7401
  24   2.0000      -0.648995       -17.6601
  25   2.0000      -0.618719       -16.8362
  26   2.0000      -0.611683       -16.6447
  27   2.0000      -0.595836       -16.2135
  28   2.0000      -0.577613       -15.7176
  29   2.0000      -0.575337       -15.6557
  30   2.0000      -0.563433       -15.3318
  31   2.0000      -0.550720       -14.9858
  32   2.0000      -0.542590       -14.7646
  33   2.0000      -0.522507       -14.2181
  34   2.0000      -0.511235       -13.9114
  35   2.0000      -0.510541       -13.8925
  36   2.0000      -0.499991       -13.6055
  37   2.0000      -0.487135       -13.2556
  38   2.0000      -0.484014       -13.1707
  39   2.0000      -0.483216       -13.1490
  40   0.0000       0.076966         2.0944
  41   0.0000       0.126104         3.4315
  42   0.0000       0.139305         3.7907
  43   0.0000       0.153873         4.1871
  44   0.0000       0.163471         4.4483

MULLIKEN ATOMIC CHARGES
-----------------------
   0 O :   -0.746932
   1 H :    0.337505
   2 H :    0.384908
   3 O :   -0.749003
   4 H :    0.342327
   5 H :    0.378178
   6 O :   -0.682484
   7 H :    0.357405
   8 H :    0.375883
   9 O :   -0.708240
  10 H :    0.377525
  11 H :    0.322441
  12 O :   -0.717088
  13 H :    0.339254
  14 H :    0.359699
  15 O :   -0.707178
  16 H :    0.347746
  17 H :    0.380500
  18 O :   -0.749955
  19 H :    0.354067
  20 H :    0.381754
  21 O :   -0.727430
  22 H :    0.385558
  23 H :    0.363562
Sum of atomic charges:   -0.0000000

LOEWDIN ATOMIC CHARGES
----------------------
   0 O :   -0.343106
   1 H :    0.153855
   2 H :    0.145996
   3 O :   -0.345752
   4 H :    0.155975
   5 H :    0.144473
   6 O :   -0.265376
   7 H :    0.172873
   8 H :    0.182997
   9 O :   -0.323523
  10 H :    0.153052
  11 H :    0.162228
  12 O :   -0.350904
  13 H :    0.163835
  14 H :    0.145256
  15 O :   -0.284493
  16 H :    0.168481
  17 H :    0.155359
  18 O :   -0.311783
  19 H :    0.161160
  20 H :    0.145706
  21 O :   -0.290705
  22 H :    0.156598
  23 H :    0.147796

  Mayer bond orders larger than 0.100000
B(  0-O ,  1-H ) :   0.8502 B(  0-O ,  2-H ) :   0.7389 B(  2-H , 21-O ) :   0.1175
B(  3-O ,  4-H ) :   0.8480 B(  3-O ,  5-H ) :   0.7485 B(  5-H , 15-O ) :   0.1113
B(  6-O ,  7-H ) :   0.8370 B(  6-O ,  8-H ) :   0.8216 B(  9-O , 10-H ) :   0.8019
B(  9-O , 11-H ) :   0.8509 B( 12-O , 13-H ) :   0.8510 B( 12-O , 14-H ) :   0.8163
B( 15-O , 16-H ) :   0.8438 B( 15-O , 17-H ) :   0.7754 B( 18-O , 19-H ) :   0.8385
B( 18-O , 20-H ) :   0.7513 B( 21-O , 22-H ) :   0.8026 B( 21-O , 23-H ) :   0.7986

MP2 TOTAL ENERGY:     -610.586960907 Eh
FINAL SINGLE POINT ENERGY      -610.586960906786

DIPOLE MOMENT
-------------
                                X             Y             Z
Electronic contribution:     -0.05330      -0.01927      -0.36626
Nuclear contribution   :     -1.13309      -0.76337      -0.14168
                        -----------------------------------------
Total Dipole Moment    :     -1.18639      -0.78265      -0.50794
                        -----------------------------------------
Magnitude (a.u.)       :      1.50933
Magnitude (Debye)      :      3.83641

Rotational constants in cm-1:     0.033787     0.013606     0.012951
Rotational constants in MHz :  1012.899396   407.898962   388.268968

                             ****ORCA TERMINATED NORMALLY****
TOTAL RUN TIME: 0 days 0 hours 3 minutes 43 seconds 665 msec
