                         Program Version 4.2.0 -  RELEASE  -
|  1> # 12mecn.remya.etal.2.mol3,5,8
|  2> ! MP2 def2-TZVP EnGrad TightSCF
|  3>
|  4> %pal
|  5>     nprocs 6
|  6> end
|  7>
|  8> %maxcore 8000
|  9>
| 10> %scf
| 11>     ConvForced true
| 12> end
| 13>
| 14> *xyz 0 1
| 15> C  -5.181310000   2.853865000  -1.626100000
| 16> H  -5.488260000   3.811434000  -2.053310000
| 17> H  -5.857590000   2.068112000  -1.968630000
| 18> H  -4.170750000   2.611402000  -1.966640000
| 19> C  -5.187260000   2.919160000  -0.181450000
| 20> N  -5.181700000   2.970641000   0.983640000
| 21> C  -1.955700000   2.515080000   1.698463000
| 22> H  -2.923830000   2.883163000   2.049269000
| 23> H  -1.154850000   3.171830000   2.050990000
| 24> H  -1.790380000   1.506115000   2.087896000
| 25> C  -1.948230000   2.482156000   0.253672000
| 26> N  -1.937550000   2.462523000  -0.913150000
| 27> C   1.912641000  -2.468050000  -1.750510000
| 28> H   2.876947000  -2.793500000  -2.151200000
| 29> H   1.688016000  -1.463720000  -2.122170000
| 30> H   1.123460000  -3.154780000  -2.069590000
| 31> C   1.977850000  -2.444240000  -0.306900000
| 32> N   2.036566000  -2.426130000   0.858249000
| 33> *
| 34>
| 35>                          ****END OF INPUT****

CARTESIAN COORDINATES (ANGSTROEM)
---------------------------------
  C     -5.181310    2.853865   -1.626100
  H     -5.488260    3.811434   -2.053310
  H     -5.857590    2.068112   -1.968630
  H     -4.170750    2.611402   -1.966640
  C     -5.187260    2.919160   -0.181450
  N     -5.181700    2.970641    0.983640
  C     -1.955700    2.515080    1.698463
  H     -2.923830    2.883163    2.049269
  H     -1.154850    3.171830    2.050990
  H     -1.790380    1.506115    2.087896
  C     -1.948230    2.482156    0.253672
  N     -1.937550    2.462523   -0.913150
  C      1.912641   -2.468050   -1.750510
  H      2.876947   -2.793500   -2.151200
  H      1.688016   -1.463720   -2.122170
  H      1.123460   -3.154780   -2.069590
  C      1.977850   -2.444240   -0.306900
  N      2.036566   -2.426130    0.858249

 Total Charge           Charge          ....    0
 Multiplicity           Mult            ....    1
 Number of Electrons    NEL             ....   66
 Basis Dimension        Dim             ....  333

ORBITAL ENERGIES
----------------

  NO   OCC          E(Eh)            E(eV)
   0   2.0000     -15.572630      -423.7528
   1   2.0000     -15.571525      -423.7227
   2   2.0000     -15.571013      -423.7088
   3   2.0000     -11.283853      -307.0493
   4   2.0000     -11.283560      -307.0413
   5   2.0000     -11.283283      -307.0337
   6   2.0000     -11.279969      -306.9436
   7   2.0000     -11.272052      -306.7281
   8   2.0000     -11.269985      -306.6719
   9   2.0000      -1.218492       -33.1569
  10   2.0000      -1.214232       -33.0409
  11   2.0000      -1.214215       -33.0405
  12   2.0000      -1.042766       -28.3751
  13   2.0000      -1.036135       -28.1947
  14   2.0000      -1.032788       -28.1036
  15   2.0000      -0.698588       -19.0096
  16   2.0000      -0.695537       -18.9265
  17   2.0000      -0.689958       -18.7747
  18   2.0000      -0.631722       -17.1900
  19   2.0000      -0.630343       -17.1525
  20   2.0000      -0.629570       -17.1315
  21   2.0000      -0.623474       -16.9656
  22   2.0000      -0.619553       -16.8589
  23   2.0000      -0.613357       -16.6903
  24   2.0000      -0.559530       -15.2256
  25   2.0000      -0.556271       -15.1369
  26   2.0000      -0.555729       -15.1221
  27   2.0000      -0.460514       -12.5312
  28   2.0000      -0.459102       -12.4928
  29   2.0000      -0.457410       -12.4467
  30   2.0000      -0.457111       -12.4386
  31   2.0000      -0.457050       -12.4370
  32   2.0000      -0.456150       -12.4125
  33   0.0000       0.118432         3.2227
  34   0.0000       0.129789         3.5317
  35   0.0000       0.143744         3.9115
  36   0.0000       0.169343         4.6080
  37   0.0000       0.172123         4.6837

MULLIKEN ATOMIC CHARGES
-----------------------
   0 C :   -0.287145
   1 H :    0.166701
   2 H :    0.165848
   3 H :    0.204903
   4 C :   -0.102415
   5 N :   -0.148446
   6 C :   -0.284147
   7 H :    0.204441
   8 H :    0.167163
   9 H :    0.171885
  10 C :   -0.101093
  11 N :   -0.157681
  12 C :   -0.279330
  13 H :    0.171392
  14 H :    0.176901
  15 H :    0.171467
  16 C :   -0.145396
  17 N :   -0.095048
Sum of atomic charges:    0.0000000

LOEWDIN ATOMIC CHARGES
----------------------
   0 C :   -0.282768
   1 H :    0.151215
   2 H :    0.150335
   3 H :    0.156898
   4 C :   -0.207033
   5 N :    0.031274
   6 C :   -0.281334
   7 H :    0.156787
   8 H :    0.151765
   9 H :    0.154747
  10 C :   -0.206846
  11 N :    0.024967
  12 C :   -0.283384
  13 H :    0.152571
  14 H :    0.154184
  15 H :    0.152531
  16 C :   -0.219388
  17 N :    0.043480

  Mayer bond orders larger than 0.100000
B(  0-C ,  1-H ) :   0.9146 B(  0-C ,  2-H ) :   0.9164 B(  0-C ,  3-H ) :   0.9015
B(  0-C ,  4-C ) :   0.9028 B(  4-C ,  5-N ) :   2.7715 B(  6-C ,  7-H ) :   0.9015
B(  6-C ,  8-H ) :   0.9155 B(  6-C ,  9-H ) :   0.9128 B(  6-C , 10-C ) :   0.9022
B( 10-C , 11-N ) :   2.7725 B( 12-C , 13-H ) :   0.9164 B( 12-C , 14-H ) :   0.9152
B( 12-C , 15-H ) :   0.9161 B( 12-C , 16-C ) :   0.9018 B( 16-C , 17-N ) :   2.8388

MP2 TOTAL ENERGY:     -397.460265160 Eh
FINAL SINGLE POINT ENERGY      -397.460265159588

DIPOLE MOMENT
-------------
                                X             Y             Z
Electronic contribution:      0.13424       0.14081       3.14007
Nuclear contribution   :     -0.21157      -0.20231      -4.64849
                        -----------------------------------------
Total Dipole Moment    :     -0.07733      -0.06150      -1.50842
                        -----------------------------------------
Magnitude (a.u.)       :      1.51165
Magnitude (Debye)      :      3.84231

Rotational constants in cm-1:     0.068273     0.009456     0.008825
Rotational constants in MHz :  2046.781098   283.475805   264.564734

                             ****ORCA TERMINATED NORMALLY****
TOTAL RUN TIME: 0 days 0 hours 2 minutes 59 seconds 505 msec
