                         Program Version 3.0.3 - RELEASE   -
|  1> ! wB97X-D3 Def2-TZVP def2-TZVP/J RIJCOSX TightSCF Grid4
|  2>
|  3> %pal nprocs 12 end
|  4>
|  5> %scf
|  6>         maxiter 400
|  7> end
|  8>
|  9> * xyz  0  1
| 10> O  3.128243	0.296750	-3.245878
| 11> H  2.480321	-0.380283	-3.634228
| 12> H  3.591577	0.699303	-3.991790
| 13> O  -2.399392	0.340093	-0.491321
| 14> H  -2.138445	-0.323426	0.199909
| 15> H  -3.127669	0.840361	-0.060908
| 16> O  -0.492261	-0.494580	-2.280162
| 17> H  -1.358192	-0.173321	-1.950491
| 18> H  0.162719	0.189023	-1.982045
| 19> O  1.418214	-1.511946	-3.984593
| 20> H  1.678388	-2.256997	-3.396989
| 21> H  0.556186	-1.216964	-3.623382
| 22> O  2.288655	-3.185584	-1.995643
| 23> H  2.698311	-4.049785	-2.137820
| 24> H  3.040655	-2.569657	-1.709242
| 25> O  -3.841990	1.750873	1.341641
| 26> H  -4.687697	2.219215	1.315073
| 27> H  -3.166181	2.427126	1.672745
| 28> O  0.386847	0.558510	2.089518
| 29> H  0.008397	0.847330	2.951862
| 30> H  0.080831	1.239389	1.434751
| 31> O  -3.262410	-0.187061	3.244251
| 32> H  -2.795333	-0.849143	2.692824
| 33> H  -3.652992	0.430106	2.586230
| 34> O  -1.285762	1.328936	4.051377
| 35> H  -2.066730	0.721303	3.837364
| 36> H  -1.263214	1.422346	5.012574
| 37> O  1.427200	1.168411	-1.354498
| 38> H  2.088059	1.114394	-2.083763
| 39> H  1.782607	0.564104	-0.649119
| 40> O  -1.953411	3.336645	2.213509
| 41> H  -1.307265	3.213974	1.486762
| 42> H  -1.613813	2.788383	2.953524
| 43> O  -1.477008	-1.310285	1.450664
| 44> H  -0.754637	-0.695559	1.742113
| 45> H  -0.992667	-1.993867	0.940346
| 46> O  -0.521409	2.224565	0.160128
| 47> H  0.219438	2.147697	-0.481650
| 48> H  -1.219927	1.606880	-0.176519
| 49> O  4.106517	-1.433801	-1.308156
| 50> H  3.683913	-1.066024	-0.502998
| 51> H  3.961705	-0.747269	-1.995237
| 52> O  2.200962	-0.634378	0.505775
| 53> H  1.816084	-0.204902	1.301962
| 54> H  1.505033	-1.295101	0.250425
| 55> O  0.262170	-2.295727	-0.401819
| 56> H  0.887201	-2.891743	-0.871777
| 57> H  -0.081828	-1.708309	-1.125301
| 58> **                         ****END OF INPUT****

CARTESIAN COORDINATES (ANGSTROEM)
---------------------------------
  O      3.128243    0.296750   -3.245878
  H      2.480321   -0.380283   -3.634228
  H      3.591577    0.699303   -3.991790
  O     -2.399392    0.340093   -0.491321
  H     -2.138445   -0.323426    0.199909
  H     -3.127669    0.840361   -0.060908
  O     -0.492261   -0.494580   -2.280162
  H     -1.358192   -0.173321   -1.950491
  H      0.162719    0.189023   -1.982045
  O      1.418214   -1.511946   -3.984593
  H      1.678388   -2.256997   -3.396989
  H      0.556186   -1.216964   -3.623382
  O      2.288655   -3.185584   -1.995643
  H      2.698311   -4.049785   -2.137820
  H      3.040655   -2.569657   -1.709242
  O     -3.841990    1.750873    1.341641
  H     -4.687697    2.219215    1.315073
  H     -3.166181    2.427126    1.672745
  O      0.386847    0.558510    2.089518
  H      0.008397    0.847330    2.951862
  H      0.080831    1.239389    1.434751
  O     -3.262410   -0.187061    3.244251
  H     -2.795333   -0.849143    2.692824
  H     -3.652992    0.430106    2.586230
  O     -1.285762    1.328936    4.051377
  H     -2.066730    0.721303    3.837364
  H     -1.263214    1.422346    5.012574
  O      1.427200    1.168411   -1.354498
  H      2.088059    1.114394   -2.083763
  H      1.782607    0.564104   -0.649119
  O     -1.953411    3.336645    2.213509
  H     -1.307265    3.213974    1.486762
  H     -1.613813    2.788383    2.953524
  O     -1.477008   -1.310285    1.450664
  H     -0.754637   -0.695559    1.742113
  H     -0.992667   -1.993867    0.940346
  O     -0.521409    2.224565    0.160128
  H      0.219438    2.147697   -0.481650
  H     -1.219927    1.606880   -0.176519
  O      4.106517   -1.433801   -1.308156
  H      3.683913   -1.066024   -0.502998
  H      3.961705   -0.747269   -1.995237
  O      2.200962   -0.634378    0.505775
  H      1.816084   -0.204902    1.301962
  H      1.505033   -1.295101    0.250425
  O      0.262170   -2.295727   -0.401819
  H      0.887201   -2.891743   -0.871777
  H     -0.081828   -1.708309   -1.125301

 Total Charge           Charge          ....    0
 Multiplicity           Mult            ....    1
 Number of Electrons    NEL             ....  160
 Basis Dimension        Dim             ....  688

ORBITAL ENERGIES
----------------

  NO   OCC          E(Eh)            E(eV)
   0   2.0000     -19.252898      -523.8980
   1   2.0000     -19.252444      -523.8856
   2   2.0000     -19.251937      -523.8719
   3   2.0000     -19.251435      -523.8582
   4   2.0000     -19.241029      -523.5750
   5   2.0000     -19.240635      -523.5643
   6   2.0000     -19.240632      -523.5642
   7   2.0000     -19.240171      -523.5517
   8   2.0000     -19.239557      -523.5350
   9   2.0000     -19.238534      -523.5071
  10   2.0000     -19.237618      -523.4822
  11   2.0000     -19.236677      -523.4566
  12   2.0000     -19.233454      -523.3689
  13   2.0000     -19.232105      -523.3322
  14   2.0000     -19.231636      -523.3194
  15   2.0000     -19.231482      -523.3152
  16   2.0000      -1.160999       -31.5924
  17   2.0000      -1.155334       -31.4382
  18   2.0000      -1.146605       -31.2007
  19   2.0000      -1.145961       -31.1832
  20   2.0000      -1.144731       -31.1497
  21   2.0000      -1.138426       -30.9781
  22   2.0000      -1.136963       -30.9383
  23   2.0000      -1.135066       -30.8867
  24   2.0000      -1.127591       -30.6833
  25   2.0000      -1.123518       -30.5725
  26   2.0000      -1.122504       -30.5449
  27   2.0000      -1.119092       -30.4520
  28   2.0000      -1.117154       -30.3993
  29   2.0000      -1.116852       -30.3911
  30   2.0000      -1.109905       -30.2020
  31   2.0000      -1.102675       -30.0053
  32   2.0000      -0.663778       -18.0623
  33   2.0000      -0.662281       -18.0216
  34   2.0000      -0.658222       -17.9111
  35   2.0000      -0.656138       -17.8544
  36   2.0000      -0.653628       -17.7861
  37   2.0000      -0.653134       -17.7727
  38   2.0000      -0.648694       -17.6519
  39   2.0000      -0.645747       -17.5717
  40   2.0000      -0.640459       -17.4278
  41   2.0000      -0.637688       -17.3524
  42   2.0000      -0.636469       -17.3192
  43   2.0000      -0.631025       -17.1711
  44   2.0000      -0.628623       -17.1057
  45   2.0000      -0.626901       -17.0588
  46   2.0000      -0.624162       -16.9843
  47   2.0000      -0.623071       -16.9546
  48   2.0000      -0.587618       -15.9899
  49   2.0000      -0.566835       -15.4244
  50   2.0000      -0.549779       -14.9602
  51   2.0000      -0.548407       -14.9229
  52   2.0000      -0.535841       -14.5810
  53   2.0000      -0.533415       -14.5150
  54   2.0000      -0.523645       -14.2491
  55   2.0000      -0.521504       -14.1909
  56   2.0000      -0.504698       -13.7335
  57   2.0000      -0.501030       -13.6337
  58   2.0000      -0.500731       -13.6256
  59   2.0000      -0.498377       -13.5615
  60   2.0000      -0.480138       -13.0652
  61   2.0000      -0.477297       -12.9879
  62   2.0000      -0.471384       -12.8270
  63   2.0000      -0.453613       -12.3434
  64   2.0000      -0.441210       -12.0059
  65   2.0000      -0.439430       -11.9575
  66   2.0000      -0.438353       -11.9282
  67   2.0000      -0.437797       -11.9131
  68   2.0000      -0.431712       -11.7475
  69   2.0000      -0.431218       -11.7340
  70   2.0000      -0.428832       -11.6691
  71   2.0000      -0.426902       -11.6166
  72   2.0000      -0.426748       -11.6124
  73   2.0000      -0.425690       -11.5836
  74   2.0000      -0.422306       -11.4915
  75   2.0000      -0.421025       -11.4567
  76   2.0000      -0.419317       -11.4102
  77   2.0000      -0.418223       -11.3804
  78   2.0000      -0.417399       -11.3580
  79   2.0000      -0.416329       -11.3289
  80   0.0000       0.077890         2.1195
  81   0.0000       0.094247         2.5646
  82   0.0000       0.117015         3.1841
  83   0.0000       0.117474         3.1966
  84   0.0000       0.130216         3.5434

MULLIKEN ATOMIC CHARGES
-----------------------
   0 O :   -0.757041
   1 H :    0.374446
   2 H :    0.354148
   3 O :   -0.744429
   4 H :    0.356255
   5 H :    0.375911
   6 O :   -0.743582
   7 H :    0.393083
   8 H :    0.342667
   9 O :   -0.695318
  10 H :    0.359623
  11 H :    0.382799
  12 O :   -0.754374
  13 H :    0.355425
  14 H :    0.367833
  15 O :   -0.754866
  16 H :    0.355317
  17 H :    0.366235
  18 O :   -0.749741
  19 H :    0.385636
  20 H :    0.340669
  21 O :   -0.688632
  22 H :    0.381640
  23 H :    0.355941
  24 O :   -0.757060
  25 H :    0.370539
  26 H :    0.356251
  27 O :   -0.754005
  28 H :    0.384370
  29 H :    0.349498
  30 O :   -0.686226
  31 H :    0.383921
  32 H :    0.356387
  33 O :   -0.741111
  34 H :    0.344642
  35 H :    0.391558
  36 O :   -0.746024
  37 H :    0.399892
  38 H :    0.346273
  39 O :   -0.689610
  40 H :    0.381811
  41 H :    0.361130
  42 O :   -0.742867
  43 H :    0.394678
  44 H :    0.346769
  45 O :   -0.743610
  46 H :    0.377005
  47 H :    0.356144
Sum of atomic charges:   -0.0000000

LOEWDIN ATOMIC CHARGES
----------------------
   0 O :   -0.301542
   1 H :    0.139816
   2 H :    0.160917
   3 O :   -0.302908
   4 H :    0.135329
   5 H :    0.144930
   6 O :   -0.289858
   7 H :    0.154620
   8 H :    0.132438
   9 O :   -0.271127
  10 H :    0.140124
  11 H :    0.150887
  12 O :   -0.300576
  13 H :    0.161874
  14 H :    0.141076
  15 O :   -0.302682
  16 H :    0.161871
  17 H :    0.139891
  18 O :   -0.291813
  19 H :    0.143486
  20 H :    0.132421
  21 O :   -0.273458
  22 H :    0.151608
  23 H :    0.140967
  24 O :   -0.302774
  25 H :    0.142340
  26 H :    0.161800
  27 O :   -0.292814
  28 H :    0.143690
  29 H :    0.134562
  30 O :   -0.269967
  31 H :    0.148409
  32 H :    0.141512
  33 O :   -0.291283
  34 H :    0.134529
  35 H :    0.155147
  36 O :   -0.288413
  37 H :    0.149975
  38 H :    0.136181
  39 O :   -0.271551
  40 H :    0.150193
  41 H :    0.141854
  42 O :   -0.291936
  43 H :    0.150879
  44 H :    0.134258
  45 O :   -0.296542
  46 H :    0.145774
  47 H :    0.135888

  Mayer bond orders larger than 0.1
B(  0-O ,  1-H ) :   0.7334 B(  0-O ,  2-H ) :   0.8801 B(  1-H ,  9-O ) :   0.1755
B(  3-O ,  4-H ) :   0.7870 B(  3-O ,  5-H ) :   0.8222 B(  3-O , 38-H ) :   0.1346
B(  4-H , 33-O ) :   0.1327 B(  6-O ,  7-H ) :   0.8221 B(  6-O ,  8-H ) :   0.7881
B(  6-O , 47-H ) :   0.1320 B(  8-H , 27-O ) :   0.1370 B(  9-O , 10-H ) :   0.8249
B(  9-O , 11-H ) :   0.8310 B( 12-O , 13-H ) :   0.8800 B( 12-O , 14-H ) :   0.7345
B( 14-H , 39-O ) :   0.1825 B( 15-O , 16-H ) :   0.8802 B( 15-O , 17-H ) :   0.7365
B( 17-H , 30-O ) :   0.1813 B( 18-O , 19-H ) :   0.8065 B( 18-O , 20-H ) :   0.7847
B( 18-O , 34-H ) :   0.1345 B( 20-H , 36-O ) :   0.1422 B( 21-O , 22-H ) :   0.8337
B( 21-O , 23-H ) :   0.8323 B( 21-O , 25-H ) :   0.1781 B( 24-O , 25-H ) :   0.7371
B( 24-O , 26-H ) :   0.8792 B( 27-O , 28-H ) :   0.8029 B( 27-O , 29-H ) :   0.7790
B( 29-H , 42-O ) :   0.1455 B( 30-O , 31-H ) :   0.8310 B( 30-O , 32-H ) :   0.8366
B( 33-O , 34-H ) :   0.7916 B( 33-O , 35-H ) :   0.8230 B( 36-O , 37-H ) :   0.8078
B( 36-O , 38-H ) :   0.7932 B( 39-O , 40-H ) :   0.8324 B( 39-O , 41-H ) :   0.8315
B( 42-O , 43-H ) :   0.8150 B( 42-O , 44-H ) :   0.7888 B( 44-H , 45-O ) :   0.1402
B( 45-O , 46-H ) :   0.8210 B( 45-O , 47-H ) :   0.7863

Dispersion correction           -0.031996680
FINAL SINGLE POINT ENERGY     -1223.322620988627

DIPOLE MOMENT
-------------
                                X             Y             Z
Electronic contribution:      0.03171      -0.03284       0.00554
Nuclear contribution   :      0.03704       0.12131       0.01300
                        -----------------------------------------
Total Dipole Moment    :      0.06875       0.08847       0.01854
                        -----------------------------------------
Magnitude (a.u.)       :      0.11356
Magnitude (Debye)      :      0.28866

                             ****ORCA TERMINATED NORMALLY****
TOTAL RUN TIME: 0 days 0 hours 2 minutes 6 seconds 777 msec
