                         Program Version 4.2.0 -  RELEASE  -
|  1> # 12h2o.su.etal.mol0,1,2,4,5,7,8
|  2> ! MP2 def2-TZVP EnGrad TightSCF
|  3>
|  4> %pal
|  5>     nprocs 6
|  6> end
|  7>
|  8> %maxcore 8000
|  9>
| 10> %scf
| 11>     ConvForced true
| 12> end
| 13>
| 14> *xyz 0 1
| 15> O   1.794470000   0.923410000   2.768350000
| 16> H   2.338250000   1.359750000   3.430940000
| 17> H   0.879480000   1.303000000   2.865760000
| 18> O  -1.794470000  -0.923410000   2.768350000
| 19> H  -2.338250000  -1.359750000   3.430940000
| 20> H  -0.879480000  -1.303000000   2.865760000
| 21> O   0.923410000  -1.794470000  -2.768350000
| 22> H   1.359750000  -2.338250000  -3.430940000
| 23> H   1.303000000  -0.879480000  -2.865760000
| 24> O  -0.885520000   1.737840000   0.052730000
| 25> H  -1.032320000   2.090180000  -0.841890000
| 26> H  -1.284090000   0.839590000   0.017130000
| 27> O   0.885520000  -1.737840000   0.052730000
| 28> H   1.284090000  -0.839590000   0.017130000
| 29> H   1.032320000  -2.090180000  -0.841890000
| 30> O  -1.737840000  -0.885520000  -0.052730000
| 31> H  -2.090180000  -1.032320000   0.841890000
| 32> H  -0.839590000  -1.284090000  -0.017130000
| 33> O   1.752130000   0.741530000  -2.896280000
| 34> H   2.036450000   0.920500000  -1.984040000
| 35> H   0.921210000   1.242140000  -2.984230000
| 36> *
| 37>
| 38>                          ****END OF INPUT****

CARTESIAN COORDINATES (ANGSTROEM)
---------------------------------
  O      1.794470    0.923410    2.768350
  H      2.338250    1.359750    3.430940
  H      0.879480    1.303000    2.865760
  O     -1.794470   -0.923410    2.768350
  H     -2.338250   -1.359750    3.430940
  H     -0.879480   -1.303000    2.865760
  O      0.923410   -1.794470   -2.768350
  H      1.359750   -2.338250   -3.430940
  H      1.303000   -0.879480   -2.865760
  O     -0.885520    1.737840    0.052730
  H     -1.032320    2.090180   -0.841890
  H     -1.284090    0.839590    0.017130
  O      0.885520   -1.737840    0.052730
  H      1.284090   -0.839590    0.017130
  H      1.032320   -2.090180   -0.841890
  O     -1.737840   -0.885520   -0.052730
  H     -2.090180   -1.032320    0.841890
  H     -0.839590   -1.284090   -0.017130
  O      1.752130    0.741530   -2.896280
  H      2.036450    0.920500   -1.984040
  H      0.921210    1.242140   -2.984230

 Total Charge           Charge          ....    0
 Multiplicity           Mult            ....    1
 Number of Electrons    NEL             ....   70
 Basis Dimension        Dim             ....  301

ORBITAL ENERGIES
----------------

  NO   OCC          E(Eh)            E(eV)
   0   2.0000     -20.607269      -560.7523
   1   2.0000     -20.578402      -559.9668
   2   2.0000     -20.559413      -559.4501
   3   2.0000     -20.554766      -559.3236
   4   2.0000     -20.548282      -559.1472
   5   2.0000     -20.522822      -558.4544
   6   2.0000     -20.517051      -558.2974
   7   2.0000      -1.392813       -37.9004
   8   2.0000      -1.356547       -36.9135
   9   2.0000      -1.342768       -36.5386
  10   2.0000      -1.334754       -36.3205
  11   2.0000      -1.329045       -36.1652
  12   2.0000      -1.311848       -35.6972
  13   2.0000      -1.296175       -35.2707
  14   2.0000      -0.749918       -20.4063
  15   2.0000      -0.723115       -19.6770
  16   2.0000      -0.718462       -19.5504
  17   2.0000      -0.703032       -19.1305
  18   2.0000      -0.700502       -19.0616
  19   2.0000      -0.680175       -18.5085
  20   2.0000      -0.674575       -18.3561
  21   2.0000      -0.632331       -17.2066
  22   2.0000      -0.602383       -16.3917
  23   2.0000      -0.590354       -16.0643
  24   2.0000      -0.573653       -15.6099
  25   2.0000      -0.571912       -15.5625
  26   2.0000      -0.561244       -15.2722
  27   2.0000      -0.543852       -14.7990
  28   2.0000      -0.533098       -14.5063
  29   2.0000      -0.514802       -14.0085
  30   2.0000      -0.502905       -13.6847
  31   2.0000      -0.496984       -13.5236
  32   2.0000      -0.491496       -13.3743
  33   2.0000      -0.472541       -12.8585
  34   2.0000      -0.463053       -12.6003
  35   0.0000       0.090272         2.4564
  36   0.0000       0.117288         3.1916
  37   0.0000       0.141912         3.8616
  38   0.0000       0.149180         4.0594
  39   0.0000       0.162381         4.4186

MULLIKEN ATOMIC CHARGES
-----------------------
   0 O :   -0.696593
   1 H :    0.336627
   2 H :    0.360535
   3 O :   -0.701340
   4 H :    0.347236
   5 H :    0.366354
   6 O :   -0.732254
   7 H :    0.338555
   8 H :    0.368833
   9 O :   -0.722948
  10 H :    0.309982
  11 H :    0.364422
  12 O :   -0.706075
  13 H :    0.340486
  14 H :    0.380575
  15 O :   -0.731866
  16 H :    0.368702
  17 H :    0.362708
  18 O :   -0.678640
  19 H :    0.361467
  20 H :    0.363233
Sum of atomic charges:    0.0000000

LOEWDIN ATOMIC CHARGES
----------------------
   0 O :   -0.343245
   1 H :    0.157261
   2 H :    0.186332
   3 O :   -0.312028
   4 H :    0.161245
   5 H :    0.188782
   6 O :   -0.337274
   7 H :    0.154880
   8 H :    0.143447
   9 O :   -0.366238
  10 H :    0.148576
  11 H :    0.142967
  12 O :   -0.300130
  13 H :    0.167486
  14 H :    0.153578
  15 O :   -0.318844
  16 H :    0.146992
  17 H :    0.140937
  18 O :   -0.266857
  19 H :    0.174166
  20 H :    0.177968

  Mayer bond orders larger than 0.100000
B(  0-O ,  1-H ) :   0.8536 B(  0-O ,  2-H ) :   0.8304 B(  3-O ,  4-H ) :   0.8443
B(  3-O ,  5-H ) :   0.8243 B(  6-O ,  7-H ) :   0.8498 B(  6-O ,  8-H ) :   0.7695
B(  9-O , 10-H ) :   0.8668 B(  9-O , 11-H ) :   0.7686 B( 11-H , 15-O ) :   0.1154
B( 12-O , 13-H ) :   0.8401 B( 12-O , 14-H ) :   0.7934 B( 15-O , 16-H ) :   0.8147
B( 15-O , 17-H ) :   0.7812 B( 18-O , 19-H ) :   0.8333 B( 18-O , 20-H ) :   0.8318

MP2 TOTAL ENERGY:     -534.241334255 Eh
FINAL SINGLE POINT ENERGY      -534.241334255067

DIPOLE MOMENT
-------------
                                X             Y             Z
Electronic contribution:      0.09016      -0.16141      -0.10547
Nuclear contribution   :      0.67857       0.42069       0.54442
                        -----------------------------------------
Total Dipole Moment    :      0.76873       0.25928       0.43895
                        -----------------------------------------
Magnitude (a.u.)       :      0.92241
Magnitude (Debye)      :      2.34459

Rotational constants in cm-1:     0.039267     0.021057     0.018837
Rotational constants in MHz :  1177.204491   631.270592   564.722454

                             ****ORCA TERMINATED NORMALLY****
TOTAL RUN TIME: 0 days 0 hours 1 minutes 43 seconds 269 msec
