                         Program Version 4.2.0 -  RELEASE  -
|  1> # 12meoh.boyd.etal.mol2,5,9
|  2> ! MP2 def2-TZVP EnGrad TightSCF
|  3>
|  4> %pal
|  5>     nprocs 6
|  6> end
|  7>
|  8> %maxcore 8000
|  9>
| 10> %scf
| 11>     ConvForced true
| 12> end
| 13>
| 14> *xyz 0 1
| 15> O  -3.839777402   2.233595098   0.660436763
| 16> H  -2.958345897   1.907036203   0.973588449
| 17> C  -3.600368059   3.168790682  -0.390480452
| 18> H  -4.551709193   3.344148967  -0.901254863
| 19> H  -2.868237594   2.789240199  -1.113617525
| 20> H  -3.243594915   4.128998607   0.009549480
| 21> O  -0.662721750   1.449094618  -1.383082065
| 22> H   0.064188300   2.119867608  -1.465650660
| 23> C  -0.353319239   0.341218776  -2.229326771
| 24> H  -1.072358530  -0.454743281  -2.019906495
| 25> H   0.657636746  -0.044472139  -2.042736771
| 26> H  -0.434616607   0.624733901  -3.287793021
| 27> O   1.390610024   3.194080770  -1.536658882
| 28> H   2.162932299   2.881562730  -0.993525056
| 29> C   1.202977189   4.580367182  -1.302880219
| 30> H   0.374773115   4.915764831  -1.934164643
| 31> H   2.098649340   5.157710875  -1.570472348
| 32> H   0.950320401   4.800436015  -0.254328827
| 33> *
| 34>
| 35>                          ****END OF INPUT****

CARTESIAN COORDINATES (ANGSTROEM)
---------------------------------
  O     -3.839777    2.233595    0.660437
  H     -2.958346    1.907036    0.973588
  C     -3.600368    3.168791   -0.390480
  H     -4.551709    3.344149   -0.901255
  H     -2.868238    2.789240   -1.113618
  H     -3.243595    4.128999    0.009549
  O     -0.662722    1.449095   -1.383082
  H      0.064188    2.119868   -1.465651
  C     -0.353319    0.341219   -2.229327
  H     -1.072359   -0.454743   -2.019906
  H      0.657637   -0.044472   -2.042737
  H     -0.434617    0.624734   -3.287793
  O      1.390610    3.194081   -1.536659
  H      2.162932    2.881563   -0.993525
  C      1.202977    4.580367   -1.302880
  H      0.374773    4.915765   -1.934165
  H      2.098649    5.157711   -1.570472
  H      0.950320    4.800436   -0.254329

 Total Charge           Charge          ....    0
 Multiplicity           Mult            ....    1
 Number of Electrons    NEL             ....   54
 Basis Dimension        Dim             ....  258

ORBITAL ENERGIES
----------------

  NO   OCC          E(Eh)            E(eV)
   0   2.0000     -20.596511      -560.4596
   1   2.0000     -20.535338      -558.7950
   2   2.0000     -20.524456      -558.4988
   3   2.0000     -11.295848      -307.3756
   4   2.0000     -11.256787      -306.3127
   5   2.0000     -11.248182      -306.0786
   6   2.0000      -1.390783       -37.8451
   7   2.0000      -1.324572       -36.0434
   8   2.0000      -1.319969       -35.9182
   9   2.0000      -0.948028       -25.7972
  10   2.0000      -0.904224       -24.6052
  11   2.0000      -0.897420       -24.4200
  12   2.0000      -0.723099       -19.6765
  13   2.0000      -0.680148       -18.5078
  14   2.0000      -0.659489       -17.9456
  15   2.0000      -0.642806       -17.4916
  16   2.0000      -0.617387       -16.7999
  17   2.0000      -0.599583       -16.3155
  18   2.0000      -0.594461       -16.1761
  19   2.0000      -0.571291       -15.5456
  20   2.0000      -0.567633       -15.4461
  21   2.0000      -0.534219       -14.5368
  22   2.0000      -0.492322       -13.3968
  23   2.0000      -0.479615       -13.0510
  24   2.0000      -0.466650       -12.6982
  25   2.0000      -0.430300       -11.7091
  26   2.0000      -0.423673       -11.5287
  27   0.0000       0.109751         2.9865
  28   0.0000       0.144775         3.9395
  29   0.0000       0.160417         4.3652
  30   0.0000       0.174450         4.7470
  31   0.0000       0.192321         5.2333

MULLIKEN ATOMIC CHARGES
-----------------------
   0 O :   -0.509340
   1 H :    0.325615
   2 C :   -0.179203
   3 H :    0.118664
   4 H :    0.137322
   5 H :    0.090737
   6 O :   -0.541704
   7 H :    0.351365
   8 C :   -0.158292
   9 H :    0.125802
  10 H :    0.094670
  11 H :    0.104404
  12 O :   -0.523601
  13 H :    0.343732
  14 C :   -0.178426
  15 H :    0.144711
  16 H :    0.126593
  17 H :    0.126952
Sum of atomic charges:    0.0000000

LOEWDIN ATOMIC CHARGES
----------------------
   0 O :   -0.114937
   1 H :    0.188982
   2 C :   -0.384783
   3 H :    0.105153
   4 H :    0.099278
   5 H :    0.089957
   6 O :   -0.124649
   7 H :    0.158723
   8 C :   -0.386475
   9 H :    0.106915
  10 H :    0.092258
  11 H :    0.094464
  12 O :   -0.074683
  13 H :    0.200390
  14 C :   -0.374537
  15 H :    0.116702
  16 H :    0.104559
  17 H :    0.102682

  Mayer bond orders larger than 0.100000
B(  0-O ,  1-H ) :   0.8405 B(  0-O ,  2-C ) :   0.9248 B(  2-C ,  3-H ) :   0.9386
B(  2-C ,  4-H ) :   0.9306 B(  2-C ,  5-H ) :   0.9399 B(  6-O ,  7-H ) :   0.7832
B(  6-O ,  8-C ) :   0.9270 B(  8-C ,  9-H ) :   0.9412 B(  8-C , 10-H ) :   0.9369
B(  8-C , 11-H ) :   0.9410 B( 12-O , 13-H ) :   0.8262 B( 12-O , 14-C ) :   0.8680
B( 14-C , 15-H ) :   0.9388 B( 14-C , 16-H ) :   0.9346 B( 14-C , 17-H ) :   0.9378

MP2 TOTAL ENERGY:     -346.533319525 Eh
FINAL SINGLE POINT ENERGY      -346.533319524969

DIPOLE MOMENT
-------------
                                X             Y             Z
Electronic contribution:     -0.48338      -1.33684       1.96845
Nuclear contribution   :      2.46298       2.10830      -2.21071
                        -----------------------------------------
Total Dipole Moment    :      1.97959       0.77146      -0.24226
                        -----------------------------------------
Magnitude (a.u.)       :      2.13837
Magnitude (Debye)      :      5.43531

Rotational constants in cm-1:     0.080472     0.033628     0.025054
Rotational constants in MHz :  2412.489073  1008.156012   751.090866

                             ****ORCA TERMINATED NORMALLY****
TOTAL RUN TIME: 0 days 0 hours 1 minutes 24 seconds 114 msec
