                         Program Version 4.2.0 -  RELEASE  -
|  1> # 12h2o.su.etal.mol0,1,2,3,8
|  2> ! MP2 def2-TZVP EnGrad TightSCF
|  3>
|  4> %pal
|  5>     nprocs 6
|  6> end
|  7>
|  8> %maxcore 8000
|  9>
| 10> %scf
| 11>     ConvForced true
| 12> end
| 13>
| 14> *xyz 0 1
| 15> O   1.794470000   0.923410000   2.768350000
| 16> H   2.338250000   1.359750000   3.430940000
| 17> H   0.879480000   1.303000000   2.865760000
| 18> O  -1.794470000  -0.923410000   2.768350000
| 19> H  -2.338250000  -1.359750000   3.430940000
| 20> H  -0.879480000  -1.303000000   2.865760000
| 21> O   0.923410000  -1.794470000  -2.768350000
| 22> H   1.359750000  -2.338250000  -3.430940000
| 23> H   1.303000000  -0.879480000  -2.865760000
| 24> O  -1.752130000  -0.741530000  -2.896280000
| 25> H  -2.036450000  -0.920500000  -1.984040000
| 26> H  -0.921210000  -1.242140000  -2.984230000
| 27> O   1.752130000   0.741530000  -2.896280000
| 28> H   2.036450000   0.920500000  -1.984040000
| 29> H   0.921210000   1.242140000  -2.984230000
| 30> *
| 31>
| 32>                          ****END OF INPUT****

CARTESIAN COORDINATES (ANGSTROEM)
---------------------------------
  O      1.794470    0.923410    2.768350
  H      2.338250    1.359750    3.430940
  H      0.879480    1.303000    2.865760
  O     -1.794470   -0.923410    2.768350
  H     -2.338250   -1.359750    3.430940
  H     -0.879480   -1.303000    2.865760
  O      0.923410   -1.794470   -2.768350
  H      1.359750   -2.338250   -3.430940
  H      1.303000   -0.879480   -2.865760
  O     -1.752130   -0.741530   -2.896280
  H     -2.036450   -0.920500   -1.984040
  H     -0.921210   -1.242140   -2.984230
  O      1.752130    0.741530   -2.896280
  H      2.036450    0.920500   -1.984040
  H      0.921210    1.242140   -2.984230

 Total Charge           Charge          ....    0
 Multiplicity           Mult            ....    1
 Number of Electrons    NEL             ....   50
 Basis Dimension        Dim             ....  215

ORBITAL ENERGIES
----------------

  NO   OCC          E(Eh)            E(eV)
   0   2.0000     -20.595239      -560.4250
   1   2.0000     -20.570590      -559.7542
   2   2.0000     -20.566075      -559.6314
   3   2.0000     -20.539897      -558.9190
   4   2.0000     -20.521476      -558.4177
   5   2.0000      -1.381009       -37.5792
   6   2.0000      -1.345924       -36.6244
   7   2.0000      -1.341385       -36.5009
   8   2.0000      -1.324735       -36.0479
   9   2.0000      -1.303004       -35.4566
  10   2.0000      -0.737630       -20.0719
  11   2.0000      -0.714580       -19.4447
  12   2.0000      -0.709611       -19.3095
  13   2.0000      -0.709164       -19.2973
  14   2.0000      -0.672304       -18.2943
  15   2.0000      -0.619957       -16.8699
  16   2.0000      -0.582326       -15.8459
  17   2.0000      -0.577764       -15.7218
  18   2.0000      -0.575463       -15.6592
  19   2.0000      -0.544616       -14.8198
  20   2.0000      -0.522215       -14.2102
  21   2.0000      -0.514253       -13.9935
  22   2.0000      -0.509229       -13.8568
  23   2.0000      -0.488027       -13.2799
  24   2.0000      -0.469424       -12.7737
  25   0.0000       0.105673         2.8755
  26   0.0000       0.118700         3.2300
  27   0.0000       0.138854         3.7784
  28   0.0000       0.165260         4.4969
  29   0.0000       0.181252         4.9321

MULLIKEN ATOMIC CHARGES
-----------------------
   0 O :   -0.691059
   1 H :    0.340541
   2 H :    0.350556
   3 O :   -0.690086
   4 H :    0.340085
   5 H :    0.350278
   6 O :   -0.734718
   7 H :    0.337877
   8 H :    0.377524
   9 O :   -0.718842
  10 H :    0.332675
  11 H :    0.360414
  12 O :   -0.687943
  13 H :    0.363760
  14 H :    0.368936
Sum of atomic charges:    0.0000000

LOEWDIN ATOMIC CHARGES
----------------------
   0 O :   -0.341765
   1 H :    0.158784
   2 H :    0.182997
   3 O :   -0.341400
   4 H :    0.158642
   5 H :    0.182918
   6 O :   -0.338641
   7 H :    0.154185
   8 H :    0.145007
   9 O :   -0.354202
  10 H :    0.161243
  11 H :    0.146443
  12 O :   -0.271001
  13 H :    0.177262
  14 H :    0.179527

  Mayer bond orders larger than 0.100000
B(  0-O ,  1-H ) :   0.8519 B(  0-O ,  2-H ) :   0.8385 B(  3-O ,  4-H ) :   0.8522
B(  3-O ,  5-H ) :   0.8387 B(  6-O ,  7-H ) :   0.8503 B(  6-O ,  8-H ) :   0.7671
B(  9-O , 10-H ) :   0.8559 B(  9-O , 11-H ) :   0.8067 B( 12-O , 13-H ) :   0.8338
B( 12-O , 14-H ) :   0.8266

MP2 TOTAL ENERGY:     -381.587388687 Eh
FINAL SINGLE POINT ENERGY      -381.587388687386

DIPOLE MOMENT
-------------
                                X             Y             Z
Electronic contribution:      0.17671       0.18599      -0.28987
Nuclear contribution   :      0.67915       0.30898       2.00481
                        -----------------------------------------
Total Dipole Moment    :      0.85586       0.49497       1.71494
                        -----------------------------------------
Magnitude (a.u.)       :      1.97952
Magnitude (Debye)      :      5.03154

Rotational constants in cm-1:     0.050984     0.022330     0.017174
Rotational constants in MHz :  1528.469434   669.446830   514.866065

                             ****ORCA TERMINATED NORMALLY****
TOTAL RUN TIME: 0 days 0 hours 0 minutes 24 seconds 762 msec
