                         Program Version 4.2.0 -  RELEASE  -
|  1> # 12h2o.su.etal.mol0,1,3,4,5,7,8,9
|  2> ! MP2 def2-TZVP EnGrad TightSCF
|  3>
|  4> %pal
|  5>     nprocs 6
|  6> end
|  7>
|  8> %maxcore 8000
|  9>
| 10> %scf
| 11>     ConvForced true
| 12> end
| 13>
| 14> *xyz 0 1
| 15> O   1.794470000   0.923410000   2.768350000
| 16> H   2.338250000   1.359750000   3.430940000
| 17> H   0.879480000   1.303000000   2.865760000
| 18> O  -1.794470000  -0.923410000   2.768350000
| 19> H  -2.338250000  -1.359750000   3.430940000
| 20> H  -0.879480000  -1.303000000   2.865760000
| 21> O  -1.752130000  -0.741530000  -2.896280000
| 22> H  -2.036450000  -0.920500000  -1.984040000
| 23> H  -0.921210000  -1.242140000  -2.984230000
| 24> O  -0.885520000   1.737840000   0.052730000
| 25> H  -1.032320000   2.090180000  -0.841890000
| 26> H  -1.284090000   0.839590000   0.017130000
| 27> O   0.885520000  -1.737840000   0.052730000
| 28> H   1.284090000  -0.839590000   0.017130000
| 29> H   1.032320000  -2.090180000  -0.841890000
| 30> O  -1.737840000  -0.885520000  -0.052730000
| 31> H  -2.090180000  -1.032320000   0.841890000
| 32> H  -0.839590000  -1.284090000  -0.017130000
| 33> O   1.752130000   0.741530000  -2.896280000
| 34> H   2.036450000   0.920500000  -1.984040000
| 35> H   0.921210000   1.242140000  -2.984230000
| 36> O   0.741530000  -1.752130000   2.896280000
| 37> H   0.920500000  -2.036450000   1.984040000
| 38> H   1.242140000  -0.921210000   2.984230000
| 39> *
| 40>
| 41>                          ****END OF INPUT****

CARTESIAN COORDINATES (ANGSTROEM)
---------------------------------
  O      1.794470    0.923410    2.768350
  H      2.338250    1.359750    3.430940
  H      0.879480    1.303000    2.865760
  O     -1.794470   -0.923410    2.768350
  H     -2.338250   -1.359750    3.430940
  H     -0.879480   -1.303000    2.865760
  O     -1.752130   -0.741530   -2.896280
  H     -2.036450   -0.920500   -1.984040
  H     -0.921210   -1.242140   -2.984230
  O     -0.885520    1.737840    0.052730
  H     -1.032320    2.090180   -0.841890
  H     -1.284090    0.839590    0.017130
  O      0.885520   -1.737840    0.052730
  H      1.284090   -0.839590    0.017130
  H      1.032320   -2.090180   -0.841890
  O     -1.737840   -0.885520   -0.052730
  H     -2.090180   -1.032320    0.841890
  H     -0.839590   -1.284090   -0.017130
  O      1.752130    0.741530   -2.896280
  H      2.036450    0.920500   -1.984040
  H      0.921210    1.242140   -2.984230
  O      0.741530   -1.752130    2.896280
  H      0.920500   -2.036450    1.984040
  H      1.242140   -0.921210    2.984230

 Total Charge           Charge          ....    0
 Multiplicity           Mult            ....    1
 Number of Electrons    NEL             ....   80
 Basis Dimension        Dim             ....  344

ORBITAL ENERGIES
----------------

  NO   OCC          E(Eh)            E(eV)
   0   2.0000     -20.628198      -561.3218
   1   2.0000     -20.597620      -560.4897
   2   2.0000     -20.575488      -559.8875
   3   2.0000     -20.564633      -559.5921
   4   2.0000     -20.555477      -559.3430
   5   2.0000     -20.545494      -559.0713
   6   2.0000     -20.539934      -558.9200
   7   2.0000     -20.532212      -558.7099
   8   2.0000      -1.411513       -38.4092
   9   2.0000      -1.376244       -37.4495
  10   2.0000      -1.357154       -36.9300
  11   2.0000      -1.354371       -36.8543
  12   2.0000      -1.349639       -36.7255
  13   2.0000      -1.326315       -36.0909
  14   2.0000      -1.321055       -35.9477
  15   2.0000      -1.311832       -35.6968
  16   2.0000      -0.769570       -20.9411
  17   2.0000      -0.743642       -20.2355
  18   2.0000      -0.724421       -19.7125
  19   2.0000      -0.721407       -19.6305
  20   2.0000      -0.717076       -19.5126
  21   2.0000      -0.711455       -19.3597
  22   2.0000      -0.691151       -18.8072
  23   2.0000      -0.685245       -18.6465
  24   2.0000      -0.656085       -17.8530
  25   2.0000      -0.618852       -16.8398
  26   2.0000      -0.611818       -16.6484
  27   2.0000      -0.595634       -16.2080
  28   2.0000      -0.592306       -16.1175
  29   2.0000      -0.569303       -15.4915
  30   2.0000      -0.566142       -15.4055
  31   2.0000      -0.560752       -15.2588
  32   2.0000      -0.543050       -14.7771
  33   2.0000      -0.537295       -14.6205
  34   2.0000      -0.519755       -14.1432
  35   2.0000      -0.507248       -13.8029
  36   2.0000      -0.499570       -13.5940
  37   2.0000      -0.495559       -13.4849
  38   2.0000      -0.485706       -13.2167
  39   2.0000      -0.480113       -13.0645
  40   0.0000       0.075106         2.0437
  41   0.0000       0.112586         3.0636
  42   0.0000       0.129745         3.5305
  43   0.0000       0.146613         3.9895
  44   0.0000       0.153197         4.1687

MULLIKEN ATOMIC CHARGES
-----------------------
   0 O :   -0.713819
   1 H :    0.356951
   2 H :    0.381249
   3 O :   -0.742792
   4 H :    0.337712
   5 H :    0.371343
   6 O :   -0.697693
   7 H :    0.375951
   8 H :    0.315505
   9 O :   -0.728825
  10 H :    0.324782
  11 H :    0.368875
  12 O :   -0.716368
  13 H :    0.373974
  14 H :    0.372394
  15 O :   -0.750294
  16 H :    0.388452
  17 H :    0.347906
  18 O :   -0.681146
  19 H :    0.331464
  20 H :    0.350269
  21 O :   -0.714433
  22 H :    0.380813
  23 H :    0.367728
Sum of atomic charges:   -0.0000000

LOEWDIN ATOMIC CHARGES
----------------------
   0 O :   -0.314845
   1 H :    0.166032
   2 H :    0.195736
   3 O :   -0.342899
   4 H :    0.154297
   5 H :    0.143159
   6 O :   -0.339170
   7 H :    0.151839
   8 H :    0.153373
   9 O :   -0.364513
  10 H :    0.155069
  11 H :    0.142422
  12 O :   -0.274165
  13 H :    0.183226
  14 H :    0.177868
  15 O :   -0.301522
  16 H :    0.155132
  17 H :    0.137929
  18 O :   -0.329503
  19 H :    0.159996
  20 H :    0.169695
  21 O :   -0.284159
  22 H :    0.154590
  23 H :    0.150411

  Mayer bond orders larger than 0.100000
B(  0-O ,  1-H ) :   0.8391 B(  0-O ,  2-H ) :   0.8136 B(  3-O ,  4-H ) :   0.8502
B(  3-O ,  5-H ) :   0.7513 B(  5-H , 21-O ) :   0.1102 B(  6-O ,  7-H ) :   0.8114
B(  6-O ,  8-H ) :   0.8619 B(  9-O , 10-H ) :   0.8580 B(  9-O , 11-H ) :   0.7829
B( 12-O , 13-H ) :   0.8143 B( 12-O , 14-H ) :   0.8253 B( 15-O , 16-H ) :   0.7854
B( 15-O , 17-H ) :   0.7891 B( 18-O , 19-H ) :   0.8539 B( 18-O , 20-H ) :   0.8401
B( 21-O , 22-H ) :   0.8148 B( 21-O , 23-H ) :   0.8009

MP2 TOTAL ENERGY:     -610.573920976 Eh
FINAL SINGLE POINT ENERGY      -610.573920976342

DIPOLE MOMENT
-------------
                                X             Y             Z
Electronic contribution:      0.29132      -0.16589       0.11951
Nuclear contribution   :      1.02005       0.00102       1.17702
                        -----------------------------------------
Total Dipole Moment    :      1.31137      -0.16487       1.29653
                        -----------------------------------------
Magnitude (a.u.)       :      1.85145
Magnitude (Debye)      :      4.70601

Rotational constants in cm-1:     0.032359     0.018575     0.015833
Rotational constants in MHz :   970.086918   556.864717   474.665560

                             ****ORCA TERMINATED NORMALLY****
TOTAL RUN TIME: 0 days 0 hours 3 minutes 3 seconds 125 msec
