                         Program Version 4.2.0 -  RELEASE  -
|  1> ! MP2 def2-TZVP EnGrad TightSCF FrozenCore
|  2>
|  3> %pal
|  4>     nprocs 8
|  5> end
|  6>
|  7> %maxcore 8000
|  8>
|  9> %scf
| 10>     ConvForced true
| 11> end
| 12>
| 13> *xyz 0 1
| 14> O          0.00000        0.00000        0.00000
| 15> H          0.96470        0.00000        0.00000
| 16> H         -0.24917        0.00000       -0.95451
| 17> O         -1.88599        2.16462       -3.70130
| 18> H         -2.36534        2.76910       -3.08664
| 19> H         -1.38338        2.75139       -4.27900
| 20> O         -1.30427        1.70824        1.66758
| 21> H         -1.80862        1.12236        2.24466
| 22> H         -0.82305        1.10295        1.05510
| 23> O         -3.18837        3.87150       -2.03086
| 24> H         -2.93788        3.87468       -1.07670
| 25> H         -4.15306        3.86842       -2.02966
| 26> O         -2.56619        3.87660        0.61816
| 27> H         -2.10905        4.64741        0.97500
| 28> H         -2.07489        3.10250        0.98252
| 29> O         -0.61880       -0.00046       -2.65004
| 30> H         -1.11402       -0.75196       -2.99713
| 31> H         -1.07252        0.79214       -3.02302
| 32> *
| 33>
| 34>
| 35>                          ****END OF INPUT****

CARTESIAN COORDINATES (ANGSTROEM)
---------------------------------
  O      0.000000    0.000000    0.000000
  H      0.964700    0.000000    0.000000
  H     -0.249170    0.000000   -0.954510
  O     -1.885990    2.164620   -3.701300
  H     -2.365340    2.769100   -3.086640
  H     -1.383380    2.751390   -4.279000
  O     -1.304270    1.708240    1.667580
  H     -1.808620    1.122360    2.244660
  H     -0.823050    1.102950    1.055100
  O     -3.188370    3.871500   -2.030860
  H     -2.937880    3.874680   -1.076700
  H     -4.153060    3.868420   -2.029660
  O     -2.566190    3.876600    0.618160
  H     -2.109050    4.647410    0.975000
  H     -2.074890    3.102500    0.982520
  O     -0.618800   -0.000460   -2.650040
  H     -1.114020   -0.751960   -2.997130
  H     -1.072520    0.792140   -3.023020

 Total Charge           Charge          ....    0
 Multiplicity           Mult            ....    1
 Number of Electrons    NEL             ....   60
 Basis Dimension        Dim             ....  258

ORBITAL ENERGIES
----------------

  NO   OCC          E(Eh)            E(eV)
   0   2.0000     -20.550034      -559.1949
   1   2.0000     -20.549748      -559.1871
   2   2.0000     -20.549704      -559.1859
   3   2.0000     -20.549650      -559.1844
   4   2.0000     -20.549598      -559.1830
   5   2.0000     -20.549050      -559.1681
   6   2.0000      -1.352501       -36.8034
   7   2.0000      -1.345075       -36.6013
   8   2.0000      -1.344788       -36.5935
   9   2.0000      -1.329170       -36.1685
  10   2.0000      -1.328898       -36.1612
  11   2.0000      -1.320620       -35.9359
  12   2.0000      -0.713488       -19.4150
  13   2.0000      -0.710438       -19.3320
  14   2.0000      -0.709954       -19.3188
  15   2.0000      -0.709004       -19.2930
  16   2.0000      -0.708316       -19.2742
  17   2.0000      -0.707965       -19.2647
  18   2.0000      -0.624279       -16.9875
  19   2.0000      -0.603316       -16.4171
  20   2.0000      -0.602741       -16.4014
  21   2.0000      -0.555881       -15.1263
  22   2.0000      -0.555593       -15.1185
  23   2.0000      -0.533255       -14.5106
  24   2.0000      -0.501257       -13.6399
  25   2.0000      -0.500632       -13.6229
  26   2.0000      -0.500601       -13.6220
  27   2.0000      -0.500184       -13.6107
  28   2.0000      -0.499476       -13.5914
  29   2.0000      -0.495660       -13.4876
  30   0.0000       0.122642         3.3373
  31   0.0000       0.147964         4.0263
  32   0.0000       0.148643         4.0448
  33   0.0000       0.175245         4.7687
  34   0.0000       0.175715         4.7815

MULLIKEN ATOMIC CHARGES
-----------------------
   0 O :   -0.744967
   1 H :    0.344375
   2 H :    0.399920
   3 O :   -0.744993
   4 H :    0.400958
   5 H :    0.344344
   6 O :   -0.745745
   7 H :    0.344629
   8 H :    0.401057
   9 O :   -0.745078
  10 H :    0.399926
  11 H :    0.344511
  12 O :   -0.743432
  13 H :    0.343339
  14 H :    0.400837
  15 O :   -0.744399
  16 H :    0.344124
  17 H :    0.400595
Sum of atomic charges:   -0.0000000

LOEWDIN ATOMIC CHARGES
----------------------
   0 O :   -0.314501
   1 H :    0.160909
   2 H :    0.153394
   3 O :   -0.314205
   4 H :    0.153487
   5 H :    0.160918
   6 O :   -0.314873
   7 H :    0.161162
   8 H :    0.153379
   9 O :   -0.314501
  10 H :    0.153396
  11 H :    0.160961
  12 O :   -0.313969
  13 H :    0.160323
  14 H :    0.154159
  15 O :   -0.314186
  16 H :    0.160683
  17 H :    0.153463

  Mayer bond orders larger than 0.100000
B(  0-O ,  1-H ) :   0.8466 B(  0-O ,  2-H ) :   0.7517 B(  3-O ,  4-H ) :   0.7521
B(  3-O ,  5-H ) :   0.8466 B(  6-O ,  7-H ) :   0.8466 B(  6-O ,  8-H ) :   0.7522
B(  9-O , 10-H ) :   0.7517 B(  9-O , 11-H ) :   0.8466 B( 12-O , 13-H ) :   0.8469
B( 12-O , 14-H ) :   0.7532 B( 15-O , 16-H ) :   0.8467 B( 15-O , 17-H ) :   0.7520

MP2 TOTAL ENERGY:     -457.958759517 Eh
FINAL SINGLE POINT ENERGY      -457.958759517077

DIPOLE MOMENT
-------------
                                X             Y             Z
Electronic contribution:     -0.00455      -0.00432       0.00000
Nuclear contribution   :      0.00080       0.03162       0.00295
                        -----------------------------------------
Total Dipole Moment    :     -0.00375       0.02730       0.00295
                        -----------------------------------------
Magnitude (a.u.)       :      0.02771
Magnitude (Debye)      :      0.07044

Rotational constants in cm-1:     0.041513     0.041252     0.021050
Rotational constants in MHz :  1244.520673  1236.710984   631.062700

                             ****ORCA TERMINATED NORMALLY****
TOTAL RUN TIME: 0 days 0 hours 2 minutes 1 seconds 52 msec
