                         Program Version 4.2.0 -  RELEASE  -
|  1> # 12h2o.su.etal.mol5,7,9,11
|  2> ! MP2 def2-TZVP EnGrad TightSCF
|  3>
|  4> %pal
|  5>     nprocs 6
|  6> end
|  7>
|  8> %maxcore 8000
|  9>
| 10> %scf
| 11>     ConvForced true
| 12> end
| 13>
| 14> *xyz 0 1
| 15> O   0.885520000  -1.737840000   0.052730000
| 16> H   1.284090000  -0.839590000   0.017130000
| 17> H   1.032320000  -2.090180000  -0.841890000
| 18> O  -1.737840000  -0.885520000  -0.052730000
| 19> H  -2.090180000  -1.032320000   0.841890000
| 20> H  -0.839590000  -1.284090000  -0.017130000
| 21> O   0.741530000  -1.752130000   2.896280000
| 22> H   0.920500000  -2.036450000   1.984040000
| 23> H   1.242140000  -0.921210000   2.984230000
| 24> O  -0.741530000   1.752130000   2.896280000
| 25> H  -0.920500000   2.036450000   1.984040000
| 26> H  -1.242140000   0.921210000   2.984230000
| 27> *
| 28>
| 29>                          ****END OF INPUT****

CARTESIAN COORDINATES (ANGSTROEM)
---------------------------------
  O      0.885520   -1.737840    0.052730
  H      1.284090   -0.839590    0.017130
  H      1.032320   -2.090180   -0.841890
  O     -1.737840   -0.885520   -0.052730
  H     -2.090180   -1.032320    0.841890
  H     -0.839590   -1.284090   -0.017130
  O      0.741530   -1.752130    2.896280
  H      0.920500   -2.036450    1.984040
  H      1.242140   -0.921210    2.984230
  O     -0.741530    1.752130    2.896280
  H     -0.920500    2.036450    1.984040
  H     -1.242140    0.921210    2.984230

 Total Charge           Charge          ....    0
 Multiplicity           Mult            ....    1
 Number of Electrons    NEL             ....   40
 Basis Dimension        Dim             ....  172

ORBITAL ENERGIES
----------------

  NO   OCC          E(Eh)            E(eV)
   0   2.0000     -20.626403      -561.2730
   1   2.0000     -20.562026      -559.5212
   2   2.0000     -20.549387      -559.1772
   3   2.0000     -20.542658      -558.9941
   4   2.0000      -1.409222       -38.3469
   5   2.0000      -1.341131       -36.4940
   6   2.0000      -1.331222       -36.2244
   7   2.0000      -1.323725       -36.0204
   8   2.0000      -0.767590       -20.8872
   9   2.0000      -0.706980       -19.2379
  10   2.0000      -0.703507       -19.1434
  11   2.0000      -0.699206       -19.0264
  12   2.0000      -0.644012       -17.5245
  13   2.0000      -0.589846       -16.0505
  14   2.0000      -0.579045       -15.7566
  15   2.0000      -0.564041       -15.3483
  16   2.0000      -0.543290       -14.7837
  17   2.0000      -0.507267       -13.8034
  18   2.0000      -0.494858       -13.4658
  19   2.0000      -0.490162       -13.3380
  20   0.0000       0.083284         2.2663
  21   0.0000       0.125009         3.4017
  22   0.0000       0.154595         4.2067
  23   0.0000       0.177003         4.8165
  24   0.0000       0.191029         5.1982

MULLIKEN ATOMIC CHARGES
-----------------------
   0 O :   -0.707146
   1 H :    0.364779
   2 H :    0.372116
   3 O :   -0.711525
   4 H :    0.330552
   5 H :    0.352763
   6 O :   -0.696952
   7 H :    0.365959
   8 H :    0.331836
   9 O :   -0.683069
  10 H :    0.339373
  11 H :    0.341313
Sum of atomic charges:    0.0000000

LOEWDIN ATOMIC CHARGES
----------------------
   0 O :   -0.276110
   1 H :    0.182970
   2 H :    0.179451
   3 O :   -0.357980
   4 H :    0.158092
   5 H :    0.139976
   6 O :   -0.335778
   7 H :    0.149857
   8 H :    0.161587
   9 O :   -0.332542
  10 H :    0.165193
  11 H :    0.165284

  Mayer bond orders larger than 0.100000
B(  0-O ,  1-H ) :   0.8266 B(  0-O ,  2-H ) :   0.8266 B(  3-O ,  4-H ) :   0.8557
B(  3-O ,  5-H ) :   0.8099 B(  6-O ,  7-H ) :   0.8268 B(  6-O ,  8-H ) :   0.8525
B(  9-O , 10-H ) :   0.8505 B(  9-O , 11-H ) :   0.8465

MP2 TOTAL ENERGY:     -305.267786382 Eh
FINAL SINGLE POINT ENERGY      -305.267786381548

DIPOLE MOMENT
-------------
                                X             Y             Z
Electronic contribution:      0.08070      -0.11087       0.06296
Nuclear contribution   :      0.90834       0.00045      -1.37221
                        -----------------------------------------
Total Dipole Moment    :      0.98904      -0.11042      -1.30926
                        -----------------------------------------
Magnitude (a.u.)       :      1.64455
Magnitude (Debye)      :      4.18011

Rotational constants in cm-1:     0.103637     0.067731     0.047344
Rotational constants in MHz :  3106.944961  2030.524142  1419.329743

                             ****ORCA TERMINATED NORMALLY****
TOTAL RUN TIME: 0 days 0 hours 0 minutes 18 seconds 494 msec
