                         Program Version 4.2.0 -  RELEASE  -
|  1> # 12h2o.su.etal.mol3,4,8,10,11
|  2> ! MP2 def2-TZVP EnGrad TightSCF
|  3>
|  4> %pal
|  5>     nprocs 6
|  6> end
|  7>
|  8> %maxcore 8000
|  9>
| 10> %scf
| 11>     ConvForced true
| 12> end
| 13>
| 14> *xyz 0 1
| 15> O  -1.752130000  -0.741530000  -2.896280000
| 16> H  -2.036450000  -0.920500000  -1.984040000
| 17> H  -0.921210000  -1.242140000  -2.984230000
| 18> O  -0.885520000   1.737840000   0.052730000
| 19> H  -1.032320000   2.090180000  -0.841890000
| 20> H  -1.284090000   0.839590000   0.017130000
| 21> O   1.752130000   0.741530000  -2.896280000
| 22> H   2.036450000   0.920500000  -1.984040000
| 23> H   0.921210000   1.242140000  -2.984230000
| 24> O  -0.923410000   1.794470000  -2.768350000
| 25> H  -1.359750000   2.338250000  -3.430940000
| 26> H  -1.303000000   0.879480000  -2.865760000
| 27> O  -0.741530000   1.752130000   2.896280000
| 28> H  -0.920500000   2.036450000   1.984040000
| 29> H  -1.242140000   0.921210000   2.984230000
| 30> *
| 31>
| 32>                          ****END OF INPUT****

CARTESIAN COORDINATES (ANGSTROEM)
---------------------------------
  O     -1.752130   -0.741530   -2.896280
  H     -2.036450   -0.920500   -1.984040
  H     -0.921210   -1.242140   -2.984230
  O     -0.885520    1.737840    0.052730
  H     -1.032320    2.090180   -0.841890
  H     -1.284090    0.839590    0.017130
  O      1.752130    0.741530   -2.896280
  H      2.036450    0.920500   -1.984040
  H      0.921210    1.242140   -2.984230
  O     -0.923410    1.794470   -2.768350
  H     -1.359750    2.338250   -3.430940
  H     -1.303000    0.879480   -2.865760
  O     -0.741530    1.752130    2.896280
  H     -0.920500    2.036450    1.984040
  H     -1.242140    0.921210    2.984230

 Total Charge           Charge          ....    0
 Multiplicity           Mult            ....    1
 Number of Electrons    NEL             ....   50
 Basis Dimension        Dim             ....  215

ORBITAL ENERGIES
----------------

  NO   OCC          E(Eh)            E(eV)
   0   2.0000     -20.625811      -561.2568
   1   2.0000     -20.583453      -560.1042
   2   2.0000     -20.571381      -559.7757
   3   2.0000     -20.538927      -558.8926
   4   2.0000     -20.529644      -558.6400
   5   2.0000      -1.411998       -38.4224
   6   2.0000      -1.370633       -37.2968
   7   2.0000      -1.351494       -36.7760
   8   2.0000      -1.321172       -35.9509
   9   2.0000      -1.311403       -35.6851
  10   2.0000      -0.767916       -20.8961
  11   2.0000      -0.751958       -20.4618
  12   2.0000      -0.721555       -19.6345
  13   2.0000      -0.691620       -18.8199
  14   2.0000      -0.679816       -18.4987
  15   2.0000      -0.653334       -17.7781
  16   2.0000      -0.616379       -16.7725
  17   2.0000      -0.596821       -16.2403
  18   2.0000      -0.567548       -15.4438
  19   2.0000      -0.556226       -15.1357
  20   2.0000      -0.545994       -14.8573
  21   2.0000      -0.526119       -14.3164
  22   2.0000      -0.515510       -14.0277
  23   2.0000      -0.486709       -13.2440
  24   2.0000      -0.476007       -12.9528
  25   0.0000       0.071397         1.9428
  26   0.0000       0.133003         3.6192
  27   0.0000       0.139053         3.7838
  28   0.0000       0.161399         4.3919
  29   0.0000       0.176031         4.7900

MULLIKEN ATOMIC CHARGES
-----------------------
   0 O :   -0.680048
   1 H :    0.352805
   2 H :    0.377906
   3 O :   -0.698358
   4 H :    0.378854
   5 H :    0.308452
   6 O :   -0.714820
   7 H :    0.337533
   8 H :    0.359685
   9 O :   -0.750087
  10 H :    0.355086
  11 H :    0.380903
  12 O :   -0.692355
  13 H :    0.372302
  14 H :    0.312142
Sum of atomic charges:   -0.0000000

LOEWDIN ATOMIC CHARGES
----------------------
   0 O :   -0.264679
   1 H :    0.170990
   2 H :    0.183933
   3 O :   -0.321920
   4 H :    0.153372
   5 H :    0.157435
   6 O :   -0.349981
   7 H :    0.163246
   8 H :    0.145248
   9 O :   -0.311757
  10 H :    0.161633
  11 H :    0.145484
  12 O :   -0.340290
  13 H :    0.152625
  14 H :    0.154661

  Mayer bond orders larger than 0.100000
B(  0-O ,  1-H ) :   0.8400 B(  0-O ,  2-H ) :   0.8203 B(  3-O ,  4-H ) :   0.8005
B(  3-O ,  5-H ) :   0.8601 B(  6-O ,  7-H ) :   0.8522 B(  6-O ,  8-H ) :   0.8166
B(  9-O , 10-H ) :   0.8379 B(  9-O , 11-H ) :   0.7520 B( 12-O , 13-H ) :   0.8178
B( 12-O , 14-H ) :   0.8670

MP2 TOTAL ENERGY:     -381.597188928 Eh
FINAL SINGLE POINT ENERGY      -381.597188928442

DIPOLE MOMENT
-------------
                                X             Y             Z
Electronic contribution:      0.07731       0.02461      -0.31537
Nuclear contribution   :     -1.69875      -1.21834      -0.72077
                        -----------------------------------------
Total Dipole Moment    :     -1.62144      -1.19373      -1.03613
                        -----------------------------------------
Magnitude (a.u.)       :      2.26443
Magnitude (Debye)      :      5.75572

Rotational constants in cm-1:     0.090651     0.030403     0.026671
Rotational constants in MHz :  2717.642923   911.470952   799.571575

                             ****ORCA TERMINATED NORMALLY****
TOTAL RUN TIME: 0 days 0 hours 0 minutes 31 seconds 695 msec
