                         Program Version 4.2.0 -  RELEASE  -
|  1> # 12meoh.boyd.etal.mol4,8,9
|  2> ! MP2 def2-TZVP EnGrad TightSCF
|  3>
|  4> %pal
|  5>     nprocs 6
|  6> end
|  7>
|  8> %maxcore 8000
|  9>
| 10> %scf
| 11>     ConvForced true
| 12> end
| 13>
| 14> *xyz 0 1
| 15> O  -1.358578914   1.232360421   1.189721000
| 16> H  -1.058250183   1.216459361   0.238591307
| 17> C  -0.389763452   1.957872567   1.943072362
| 18> H  -0.747220771   2.012806578   2.975200343
| 19> H  -0.260410585   2.982763209   1.565366540
| 20> H   0.585220638   1.453754179   1.934070793
| 21> O   3.570084754   2.361662577  -0.202416728
| 22> H   3.393280933   1.755669977   0.560634073
| 23> C   4.368082883   1.644741793  -1.143112807
| 24> H   4.552851717   2.311801738  -1.989632421
| 25> H   3.862427494   0.740851663  -1.508095690
| 26> H   5.333949674   1.357289092  -0.706288100
| 27> O   1.390610024   3.194080770  -1.536658882
| 28> H   2.162932299   2.881562730  -0.993525056
| 29> C   1.202977189   4.580367182  -1.302880219
| 30> H   0.374773115   4.915764831  -1.934164643
| 31> H   2.098649340   5.157710875  -1.570472348
| 32> H   0.950320401   4.800436015  -0.254328827
| 33> *
| 34>
| 35>                          ****END OF INPUT****

CARTESIAN COORDINATES (ANGSTROEM)
---------------------------------
  O     -1.358579    1.232360    1.189721
  H     -1.058250    1.216459    0.238591
  C     -0.389763    1.957873    1.943072
  H     -0.747221    2.012807    2.975200
  H     -0.260411    2.982763    1.565367
  H      0.585221    1.453754    1.934071
  O      3.570085    2.361663   -0.202417
  H      3.393281    1.755670    0.560634
  C      4.368083    1.644742   -1.143113
  H      4.552852    2.311802   -1.989632
  H      3.862427    0.740852   -1.508096
  H      5.333950    1.357289   -0.706288
  O      1.390610    3.194081   -1.536659
  H      2.162932    2.881563   -0.993525
  C      1.202977    4.580367   -1.302880
  H      0.374773    4.915765   -1.934165
  H      2.098649    5.157711   -1.570472
  H      0.950320    4.800436   -0.254329

 Total Charge           Charge          ....    0
 Multiplicity           Mult            ....    1
 Number of Electrons    NEL             ....   54
 Basis Dimension        Dim             ....  258

ORBITAL ENERGIES
----------------

  NO   OCC          E(Eh)            E(eV)
   0   2.0000     -20.596039      -560.4467
   1   2.0000     -20.550914      -559.2188
   2   2.0000     -20.524143      -558.4903
   3   2.0000     -11.294150      -307.3294
   4   2.0000     -11.268580      -306.6336
   5   2.0000     -11.255568      -306.2796
   6   2.0000      -1.389632       -37.8138
   7   2.0000      -1.338644       -36.4263
   8   2.0000      -1.321835       -35.9690
   9   2.0000      -0.946322       -25.7507
  10   2.0000      -0.915314       -24.9070
  11   2.0000      -0.902854       -24.5679
  12   2.0000      -0.723604       -19.6903
  13   2.0000      -0.680218       -18.5097
  14   2.0000      -0.674503       -18.3542
  15   2.0000      -0.638204       -17.3664
  16   2.0000      -0.616036       -16.7632
  17   2.0000      -0.612659       -16.6713
  18   2.0000      -0.597946       -16.2709
  19   2.0000      -0.584834       -15.9141
  20   2.0000      -0.570940       -15.5361
  21   2.0000      -0.534700       -14.5499
  22   2.0000      -0.495443       -13.4817
  23   2.0000      -0.494689       -13.4612
  24   2.0000      -0.463305       -12.6072
  25   2.0000      -0.444040       -12.0829
  26   2.0000      -0.425302       -11.5731
  27   0.0000       0.103079         2.8049
  28   0.0000       0.149182         4.0595
  29   0.0000       0.155785         4.2391
  30   0.0000       0.165985         4.5167
  31   0.0000       0.189383         5.1534

MULLIKEN ATOMIC CHARGES
-----------------------
   0 O :   -0.504999
   1 H :    0.331185
   2 C :   -0.156682
   3 H :    0.129392
   4 H :    0.115087
   5 H :    0.081120
   6 O :   -0.517503
   7 H :    0.340764
   8 C :   -0.193788
   9 H :    0.146760
  10 H :    0.133538
  11 H :    0.128136
  12 O :   -0.542760
  13 H :    0.350835
  14 C :   -0.160853
  15 H :    0.122560
  16 H :    0.104468
  17 H :    0.092741
Sum of atomic charges:    0.0000000

LOEWDIN ATOMIC CHARGES
----------------------
   0 O :   -0.112320
   1 H :    0.195315
   2 C :   -0.381356
   3 H :    0.109148
   4 H :    0.097762
   5 H :    0.088020
   6 O :   -0.077301
   7 H :    0.195364
   8 C :   -0.370104
   9 H :    0.117405
  10 H :    0.104065
  11 H :    0.104275
  12 O :   -0.122157
  13 H :    0.157950
  14 C :   -0.395927
  15 H :    0.106503
  16 H :    0.093875
  17 H :    0.089482

  Mayer bond orders larger than 0.100000
B(  0-O ,  1-H ) :   0.8351 B(  0-O ,  2-C ) :   0.9323 B(  2-C ,  3-H ) :   0.9366
B(  2-C ,  4-H ) :   0.9400 B(  2-C ,  5-H ) :   0.9416 B(  6-O ,  7-H ) :   0.8289
B(  6-O ,  8-C ) :   0.8659 B(  8-C ,  9-H ) :   0.9378 B(  8-C , 10-H ) :   0.9391
B(  8-C , 11-H ) :   0.9341 B( 12-O , 13-H ) :   0.7816 B( 12-O , 14-C ) :   0.9387
B( 14-C , 15-H ) :   0.9410 B( 14-C , 16-H ) :   0.9399 B( 14-C , 17-H ) :   0.9388

MP2 TOTAL ENERGY:     -346.533137949 Eh
FINAL SINGLE POINT ENERGY      -346.533137948731

DIPOLE MOMENT
-------------
                                X             Y             Z
Electronic contribution:     -1.84030      -1.86475      -0.10319
Nuclear contribution   :      3.37629       1.66481       0.35636
                        -----------------------------------------
Total Dipole Moment    :      1.53599      -0.19994       0.25318
                        -----------------------------------------
Magnitude (a.u.)       :      1.56950
Magnitude (Debye)      :      3.98936

Rotational constants in cm-1:     0.083604     0.032397     0.025799
Rotational constants in MHz :  2506.386036   971.242192   773.437196

                             ****ORCA TERMINATED NORMALLY****
TOTAL RUN TIME: 0 days 0 hours 1 minutes 21 seconds 227 msec
