                         Program Version 4.2.0 -  RELEASE  -
|  1> # 12h2o.su.etal.mol0,1,4,6,8,9
|  2> ! MP2 def2-TZVP EnGrad TightSCF
|  3>
|  4> %pal
|  5>     nprocs 6
|  6> end
|  7>
|  8> %maxcore 8000
|  9>
| 10> %scf
| 11>     ConvForced true
| 12> end
| 13>
| 14> *xyz 0 1
| 15> O   1.794470000   0.923410000   2.768350000
| 16> H   2.338250000   1.359750000   3.430940000
| 17> H   0.879480000   1.303000000   2.865760000
| 18> O  -1.794470000  -0.923410000   2.768350000
| 19> H  -2.338250000  -1.359750000   3.430940000
| 20> H  -0.879480000  -1.303000000   2.865760000
| 21> O  -0.885520000   1.737840000   0.052730000
| 22> H  -1.032320000   2.090180000  -0.841890000
| 23> H  -1.284090000   0.839590000   0.017130000
| 24> O   1.737840000   0.885520000  -0.052730000
| 25> H   2.090180000   1.032320000   0.841890000
| 26> H   0.839590000   1.284090000  -0.017130000
| 27> O   1.752130000   0.741530000  -2.896280000
| 28> H   2.036450000   0.920500000  -1.984040000
| 29> H   0.921210000   1.242140000  -2.984230000
| 30> O   0.741530000  -1.752130000   2.896280000
| 31> H   0.920500000  -2.036450000   1.984040000
| 32> H   1.242140000  -0.921210000   2.984230000
| 33> *
| 34>
| 35>                          ****END OF INPUT****

CARTESIAN COORDINATES (ANGSTROEM)
---------------------------------
  O      1.794470    0.923410    2.768350
  H      2.338250    1.359750    3.430940
  H      0.879480    1.303000    2.865760
  O     -1.794470   -0.923410    2.768350
  H     -2.338250   -1.359750    3.430940
  H     -0.879480   -1.303000    2.865760
  O     -0.885520    1.737840    0.052730
  H     -1.032320    2.090180   -0.841890
  H     -1.284090    0.839590    0.017130
  O      1.737840    0.885520   -0.052730
  H      2.090180    1.032320    0.841890
  H      0.839590    1.284090   -0.017130
  O      1.752130    0.741530   -2.896280
  H      2.036450    0.920500   -1.984040
  H      0.921210    1.242140   -2.984230
  O      0.741530   -1.752130    2.896280
  H      0.920500   -2.036450    1.984040
  H      1.242140   -0.921210    2.984230

 Total Charge           Charge          ....    0
 Multiplicity           Mult            ....    1
 Number of Electrons    NEL             ....   60
 Basis Dimension        Dim             ....  258

ORBITAL ENERGIES
----------------

  NO   OCC          E(Eh)            E(eV)
   0   2.0000     -20.618006      -561.0445
   1   2.0000     -20.600438      -560.5664
   2   2.0000     -20.574213      -559.8528
   3   2.0000     -20.535532      -558.8002
   4   2.0000     -20.526266      -558.5481
   5   2.0000     -20.526138      -558.5446
   6   2.0000      -1.398573       -38.0571
   7   2.0000      -1.381117       -37.5821
   8   2.0000      -1.362862       -37.0854
   9   2.0000      -1.323475       -36.0136
  10   2.0000      -1.307856       -35.5886
  11   2.0000      -1.306738       -35.5582
  12   2.0000      -0.764115       -20.7926
  13   2.0000      -0.738417       -20.0934
  14   2.0000      -0.725272       -19.7357
  15   2.0000      -0.705340       -19.1933
  16   2.0000      -0.695074       -18.9139
  17   2.0000      -0.675868       -18.3913
  18   2.0000      -0.641352       -17.4521
  19   2.0000      -0.622013       -16.9258
  20   2.0000      -0.604643       -16.4532
  21   2.0000      -0.582089       -15.8394
  22   2.0000      -0.560533       -15.2529
  23   2.0000      -0.550896       -14.9906
  24   2.0000      -0.542068       -14.7504
  25   2.0000      -0.523977       -14.2581
  26   2.0000      -0.507457       -13.8086
  27   2.0000      -0.487126       -13.2554
  28   2.0000      -0.476967       -12.9789
  29   2.0000      -0.472332       -12.8528
  30   0.0000       0.087348         2.3769
  31   0.0000       0.109237         2.9725
  32   0.0000       0.143063         3.8930
  33   0.0000       0.169550         4.6137
  34   0.0000       0.181264         4.9324

MULLIKEN ATOMIC CHARGES
-----------------------
   0 O :   -0.722960
   1 H :    0.365799
   2 H :    0.383322
   3 O :   -0.742650
   4 H :    0.328831
   5 H :    0.365604
   6 O :   -0.685694
   7 H :    0.350516
   8 H :    0.375908
   9 O :   -0.739368
  10 H :    0.363777
  11 H :    0.338243
  12 O :   -0.691032
  13 H :    0.375664
  14 H :    0.302799
  15 O :   -0.701653
  16 H :    0.359550
  17 H :    0.373343
Sum of atomic charges:   -0.0000000

LOEWDIN ATOMIC CHARGES
----------------------
   0 O :   -0.287769
   1 H :    0.168916
   2 H :    0.196265
   3 O :   -0.377825
   4 H :    0.150422
   5 H :    0.140916
   6 O :   -0.290075
   7 H :    0.169481
   8 H :    0.186964
   9 O :   -0.347105
  10 H :    0.146016
  11 H :    0.136782
  12 O :   -0.340925
  13 H :    0.153620
  14 H :    0.149837
  15 O :   -0.281742
  16 H :    0.173698
  17 H :    0.152525

  Mayer bond orders larger than 0.100000
B(  0-O ,  1-H ) :   0.8311 B(  0-O ,  2-H ) :   0.8105 B(  3-O ,  4-H ) :   0.8585
B(  3-O ,  5-H ) :   0.7738 B(  6-O ,  7-H ) :   0.8411 B(  6-O ,  8-H ) :   0.8203
B(  9-O , 10-H ) :   0.8235 B(  9-O , 11-H ) :   0.7909 B( 12-O , 13-H ) :   0.8111
B( 12-O , 14-H ) :   0.8715 B( 15-O , 16-H ) :   0.8354 B( 15-O , 17-H ) :   0.8044

MP2 TOTAL ENERGY:     -457.920374173 Eh
FINAL SINGLE POINT ENERGY      -457.920374173055

DIPOLE MOMENT
-------------
                                X             Y             Z
Electronic contribution:      0.29626      -0.05751       0.18899
Nuclear contribution   :     -0.79765       1.02017       1.26519
                        -----------------------------------------
Total Dipole Moment    :     -0.50139       0.96267       1.45417
                        -----------------------------------------
Magnitude (a.u.)       :      1.81459
Magnitude (Debye)      :      4.61233

Rotational constants in cm-1:     0.060284     0.024757     0.021989
Rotational constants in MHz :  1807.262174   742.184651   659.209326

                             ****ORCA TERMINATED NORMALLY****
TOTAL RUN TIME: 0 days 0 hours 1 minutes 24 seconds 493 msec
