                         Program Version 4.2.0 -  RELEASE  -
|  1> # 12mecn.remya.etal.2.mol6,7,11
|  2> ! MP2 def2-TZVP EnGrad TightSCF
|  3>
|  4> %pal
|  5>     nprocs 6
|  6> end
|  7>
|  8> %maxcore 8000
|  9>
| 10> %scf
| 11>     ConvForced true
| 12> end
| 13>
| 14> *xyz 0 1
| 15> C   5.300864000  -2.920090000   1.401103000
| 16> H   5.986071000  -2.139770000   1.737487000
| 17> H   5.636642000  -3.888750000   1.778233000
| 18> H   4.307359000  -2.697240000   1.799307000
| 19> C   5.234791000  -2.933140000  -0.043290000
| 20> N   5.170868000  -2.941760000  -1.207750000
| 21> C   1.502241000   0.651296000   1.710523000
| 22> H   1.309219000   1.637164000   2.143202000
| 23> H   2.493408000   0.297996000   2.009069000
| 24> H   0.746597000  -0.059850000   2.055508000
| 25> C   1.447974000   0.738517000   0.269805000
| 26> N   1.405612000   0.808047000  -0.894380000
| 27> C   4.214163000   3.378139000   1.593627000
| 28> H   3.242643000   3.657109000   2.012358000
| 29> H   4.969258000   4.086643000   1.941290000
| 30> H   4.482966000   2.372549000   1.931698000
| 31> C   4.130759000   3.388436000   0.150192000
| 32> N   4.050180000   3.381449000  -1.013420000
| 33> *
| 34>
| 35>                          ****END OF INPUT****

CARTESIAN COORDINATES (ANGSTROEM)
---------------------------------
  C      5.300864   -2.920090    1.401103
  H      5.986071   -2.139770    1.737487
  H      5.636642   -3.888750    1.778233
  H      4.307359   -2.697240    1.799307
  C      5.234791   -2.933140   -0.043290
  N      5.170868   -2.941760   -1.207750
  C      1.502241    0.651296    1.710523
  H      1.309219    1.637164    2.143202
  H      2.493408    0.297996    2.009069
  H      0.746597   -0.059850    2.055508
  C      1.447974    0.738517    0.269805
  N      1.405612    0.808047   -0.894380
  C      4.214163    3.378139    1.593627
  H      3.242643    3.657109    2.012358
  H      4.969258    4.086643    1.941290
  H      4.482966    2.372549    1.931698
  C      4.130759    3.388436    0.150192
  N      4.050180    3.381449   -1.013420

 Total Charge           Charge          ....    0
 Multiplicity           Mult            ....    1
 Number of Electrons    NEL             ....   66
 Basis Dimension        Dim             ....  333

ORBITAL ENERGIES
----------------

  NO   OCC          E(Eh)            E(eV)
   0   2.0000     -15.574002      -423.7902
   1   2.0000     -15.572761      -423.7564
   2   2.0000     -15.572033      -423.7366
   3   2.0000     -11.293853      -307.3214
   4   2.0000     -11.292027      -307.2717
   5   2.0000     -11.290160      -307.2209
   6   2.0000     -11.279624      -306.9342
   7   2.0000     -11.276606      -306.8521
   8   2.0000     -11.276407      -306.8466
   9   2.0000      -1.214777       -33.0558
  10   2.0000      -1.212952       -33.0061
  11   2.0000      -1.211581       -32.9688
  12   2.0000      -1.051426       -28.6108
  13   2.0000      -1.047953       -28.5163
  14   2.0000      -1.047756       -28.5109
  15   2.0000      -0.706001       -19.2113
  16   2.0000      -0.704953       -19.1828
  17   2.0000      -0.703126       -19.1330
  18   2.0000      -0.645527       -17.5657
  19   2.0000      -0.643653       -17.5147
  20   2.0000      -0.637695       -17.3526
  21   2.0000      -0.636523       -17.3207
  22   2.0000      -0.635031       -17.2801
  23   2.0000      -0.631850       -17.1935
  24   2.0000      -0.555386       -15.1128
  25   2.0000      -0.553811       -15.0700
  26   2.0000      -0.551101       -14.9962
  27   2.0000      -0.463463       -12.6115
  28   2.0000      -0.458412       -12.4740
  29   2.0000      -0.457936       -12.4611
  30   2.0000      -0.457137       -12.4393
  31   2.0000      -0.454178       -12.3588
  32   2.0000      -0.447226       -12.1696
  33   0.0000       0.078507         2.1363
  34   0.0000       0.116187         3.1616
  35   0.0000       0.136319         3.7094
  36   0.0000       0.145568         3.9611
  37   0.0000       0.153850         4.1865

MULLIKEN ATOMIC CHARGES
-----------------------
   0 C :   -0.287031
   1 H :    0.169945
   2 H :    0.176323
   3 H :    0.163010
   4 C :   -0.143073
   5 N :   -0.079149
   6 C :   -0.283799
   7 H :    0.165454
   8 H :    0.155325
   9 H :    0.183509
  10 C :   -0.154535
  11 N :   -0.066064
  12 C :   -0.282188
  13 H :    0.164063
  14 H :    0.183087
  15 H :    0.157805
  16 C :   -0.155581
  17 N :   -0.067103
Sum of atomic charges:    0.0000000

LOEWDIN ATOMIC CHARGES
----------------------
   0 C :   -0.286612
   1 H :    0.149897
   2 H :    0.151908
   3 H :    0.149084
   4 C :   -0.220572
   5 N :    0.056289
   6 C :   -0.289462
   7 H :    0.148999
   8 H :    0.146431
   9 H :    0.153597
  10 C :   -0.227077
  11 N :    0.067474
  12 C :   -0.288954
  13 H :    0.149198
  14 H :    0.151902
  15 H :    0.147687
  16 C :   -0.224922
  17 N :    0.065133

  Mayer bond orders larger than 0.100000
B(  0-C ,  1-H ) :   0.9190 B(  0-C ,  2-H ) :   0.9156 B(  0-C ,  3-H ) :   0.9202
B(  0-C ,  4-C ) :   0.9012 B(  4-C ,  5-N ) :   2.8282 B(  6-C ,  7-H ) :   0.9215
B(  6-C ,  8-H ) :   0.9253 B(  6-C ,  9-H ) :   0.9121 B(  6-C , 10-C ) :   0.8950
B( 10-C , 11-N ) :   2.8185 B( 12-C , 13-H ) :   0.9225 B( 12-C , 14-H ) :   0.9112
B( 12-C , 15-H ) :   0.9221 B( 12-C , 16-C ) :   0.9003 B( 16-C , 17-N ) :   2.8236

MP2 TOTAL ENERGY:     -397.444715613 Eh
FINAL SINGLE POINT ENERGY      -397.444715613386

DIPOLE MOMENT
-------------
                                X             Y             Z
Electronic contribution:     -0.44008       0.18329      -9.64093
Nuclear contribution   :      0.64811      -0.25612      13.91414
                        -----------------------------------------
Total Dipole Moment    :      0.20803      -0.07283       4.27321
                        -----------------------------------------
Magnitude (a.u.)       :      4.27889
Magnitude (Debye)      :     10.87608

Rotational constants in cm-1:     0.040683     0.016039     0.014690
Rotational constants in MHz :  1219.660252   480.846443   440.407775

                             ****ORCA TERMINATED NORMALLY****
TOTAL RUN TIME: 0 days 0 hours 2 minutes 59 seconds 3 msec
