                         Program Version 4.2.0 -  RELEASE  -
|  1> # 12h2o.su.etal.mol1,2,6,7,8,9,10,11
|  2> ! MP2 def2-TZVP EnGrad TightSCF
|  3>
|  4> %pal
|  5>     nprocs 6
|  6> end
|  7>
|  8> %maxcore 8000
|  9>
| 10> %scf
| 11>     ConvForced true
| 12> end
| 13>
| 14> *xyz 0 1
| 15> O  -1.794470000  -0.923410000   2.768350000
| 16> H  -2.338250000  -1.359750000   3.430940000
| 17> H  -0.879480000  -1.303000000   2.865760000
| 18> O   0.923410000  -1.794470000  -2.768350000
| 19> H   1.359750000  -2.338250000  -3.430940000
| 20> H   1.303000000  -0.879480000  -2.865760000
| 21> O   1.737840000   0.885520000  -0.052730000
| 22> H   2.090180000   1.032320000   0.841890000
| 23> H   0.839590000   1.284090000  -0.017130000
| 24> O  -1.737840000  -0.885520000  -0.052730000
| 25> H  -2.090180000  -1.032320000   0.841890000
| 26> H  -0.839590000  -1.284090000  -0.017130000
| 27> O   1.752130000   0.741530000  -2.896280000
| 28> H   2.036450000   0.920500000  -1.984040000
| 29> H   0.921210000   1.242140000  -2.984230000
| 30> O   0.741530000  -1.752130000   2.896280000
| 31> H   0.920500000  -2.036450000   1.984040000
| 32> H   1.242140000  -0.921210000   2.984230000
| 33> O  -0.923410000   1.794470000  -2.768350000
| 34> H  -1.359750000   2.338250000  -3.430940000
| 35> H  -1.303000000   0.879480000  -2.865760000
| 36> O  -0.741530000   1.752130000   2.896280000
| 37> H  -0.920500000   2.036450000   1.984040000
| 38> H  -1.242140000   0.921210000   2.984230000
| 39> *
| 40>
| 41>                          ****END OF INPUT****

CARTESIAN COORDINATES (ANGSTROEM)
---------------------------------
  O     -1.794470   -0.923410    2.768350
  H     -2.338250   -1.359750    3.430940
  H     -0.879480   -1.303000    2.865760
  O      0.923410   -1.794470   -2.768350
  H      1.359750   -2.338250   -3.430940
  H      1.303000   -0.879480   -2.865760
  O      1.737840    0.885520   -0.052730
  H      2.090180    1.032320    0.841890
  H      0.839590    1.284090   -0.017130
  O     -1.737840   -0.885520   -0.052730
  H     -2.090180   -1.032320    0.841890
  H     -0.839590   -1.284090   -0.017130
  O      1.752130    0.741530   -2.896280
  H      2.036450    0.920500   -1.984040
  H      0.921210    1.242140   -2.984230
  O      0.741530   -1.752130    2.896280
  H      0.920500   -2.036450    1.984040
  H      1.242140   -0.921210    2.984230
  O     -0.923410    1.794470   -2.768350
  H     -1.359750    2.338250   -3.430940
  H     -1.303000    0.879480   -2.865760
  O     -0.741530    1.752130    2.896280
  H     -0.920500    2.036450    1.984040
  H     -1.242140    0.921210    2.984230

 Total Charge           Charge          ....    0
 Multiplicity           Mult            ....    1
 Number of Electrons    NEL             ....   80
 Basis Dimension        Dim             ....  344

ORBITAL ENERGIES
----------------

  NO   OCC          E(Eh)            E(eV)
   0   2.0000     -20.616773      -561.0109
   1   2.0000     -20.592922      -560.3619
   2   2.0000     -20.584229      -560.1254
   3   2.0000     -20.575706      -559.8934
   4   2.0000     -20.548104      -559.1423
   5   2.0000     -20.540668      -558.9400
   6   2.0000     -20.538236      -558.8738
   7   2.0000     -20.507874      -558.0476
   8   2.0000      -1.403055       -38.1791
   9   2.0000      -1.371474       -37.3197
  10   2.0000      -1.362272       -37.0693
  11   2.0000      -1.362136       -37.0656
  12   2.0000      -1.332118       -36.2488
  13   2.0000      -1.329823       -36.1863
  14   2.0000      -1.316865       -35.8337
  15   2.0000      -1.289110       -35.0785
  16   2.0000      -0.758917       -20.6512
  17   2.0000      -0.744207       -20.2509
  18   2.0000      -0.733931       -19.9713
  19   2.0000      -0.729360       -19.8469
  20   2.0000      -0.699573       -19.0364
  21   2.0000      -0.698207       -18.9992
  22   2.0000      -0.686609       -18.6836
  23   2.0000      -0.675183       -18.3727
  24   2.0000      -0.644500       -17.5377
  25   2.0000      -0.620628       -16.8881
  26   2.0000      -0.606485       -16.5033
  27   2.0000      -0.599410       -16.3108
  28   2.0000      -0.575937       -15.6720
  29   2.0000      -0.570586       -15.5264
  30   2.0000      -0.562197       -15.2982
  31   2.0000      -0.545325       -14.8390
  32   2.0000      -0.538247       -14.6464
  33   2.0000      -0.534180       -14.5358
  34   2.0000      -0.520672       -14.1682
  35   2.0000      -0.518049       -14.0968
  36   2.0000      -0.495501       -13.4833
  37   2.0000      -0.483602       -13.1595
  38   2.0000      -0.479876       -13.0581
  39   2.0000      -0.458834       -12.4855
  40   0.0000       0.075213         2.0467
  41   0.0000       0.118233         3.2173
  42   0.0000       0.131901         3.5892
  43   0.0000       0.140044         3.8108
  44   0.0000       0.155350         4.2273

MULLIKEN ATOMIC CHARGES
-----------------------
   0 O :   -0.749858
   1 H :    0.352559
   2 H :    0.380627
   3 O :   -0.741580
   4 H :    0.320473
   5 H :    0.368780
   6 O :   -0.701412
   7 H :    0.345385
   8 H :    0.358430
   9 O :   -0.701517
  10 H :    0.364261
  11 H :    0.325876
  12 O :   -0.716326
  13 H :    0.379481
  14 H :    0.361178
  15 O :   -0.681926
  16 H :    0.365929
  17 H :    0.364834
  18 O :   -0.710509
  19 H :    0.352611
  20 H :    0.380710
  21 O :   -0.713161
  22 H :    0.329755
  23 H :    0.365403
Sum of atomic charges:    0.0000000

LOEWDIN ATOMIC CHARGES
----------------------
   0 O :   -0.312283
   1 H :    0.160316
   2 H :    0.145568
   3 O :   -0.378311
   4 H :    0.146389
   5 H :    0.141725
   6 O :   -0.315776
   7 H :    0.166616
   8 H :    0.176867
   9 O :   -0.346229
  10 H :    0.146844
  11 H :    0.161263
  12 O :   -0.288433
  13 H :    0.155643
  14 H :    0.148087
  15 O :   -0.264645
  16 H :    0.176101
  17 H :    0.177118
  18 O :   -0.314214
  19 H :    0.163835
  20 H :    0.195345
  21 O :   -0.347568
  22 H :    0.157833
  23 H :    0.147909

  Mayer bond orders larger than 0.100000
B(  0-O ,  1-H ) :   0.8390 B(  0-O ,  2-H ) :   0.7511 B(  3-O ,  4-H ) :   0.8625
B(  3-O ,  5-H ) :   0.7672 B(  5-H , 12-O ) :   0.1047 B(  6-O ,  7-H ) :   0.8434
B(  6-O ,  8-H ) :   0.8265 B(  9-O , 10-H ) :   0.8172 B(  9-O , 11-H ) :   0.8511
B( 12-O , 13-H ) :   0.8121 B( 12-O , 14-H ) :   0.8076 B( 15-O , 16-H ) :   0.8307
B( 15-O , 17-H ) :   0.8287 B( 18-O , 19-H ) :   0.8417 B( 18-O , 20-H ) :   0.8141
B( 21-O , 22-H ) :   0.8554 B( 21-O , 23-H ) :   0.8082

MP2 TOTAL ENERGY:     -610.565554606 Eh
FINAL SINGLE POINT ENERGY      -610.565554605814

DIPOLE MOMENT
-------------
                                X             Y             Z
Electronic contribution:      0.09723       0.13213       0.29570
Nuclear contribution   :     -0.14599      -0.11349       0.22986
                        -----------------------------------------
Total Dipole Moment    :     -0.04876       0.01864       0.52556
                        -----------------------------------------
Magnitude (a.u.)       :      0.52815
Magnitude (Debye)      :      1.34244

Rotational constants in cm-1:     0.033865     0.014672     0.013901
Rotational constants in MHz :  1015.250586   439.840711   416.745854

                             ****ORCA TERMINATED NORMALLY****
TOTAL RUN TIME: 0 days 0 hours 2 minutes 40 seconds 228 msec
