                         Program Version 4.2.0 -  RELEASE  -
|  1> # 12h2o.su.etal.mol0,2,3,8,11
|  2> ! MP2 def2-TZVP EnGrad TightSCF
|  3>
|  4> %pal
|  5>     nprocs 6
|  6> end
|  7>
|  8> %maxcore 8000
|  9>
| 10> %scf
| 11>     ConvForced true
| 12> end
| 13>
| 14> *xyz 0 1
| 15> O   1.794470000   0.923410000   2.768350000
| 16> H   2.338250000   1.359750000   3.430940000
| 17> H   0.879480000   1.303000000   2.865760000
| 18> O   0.923410000  -1.794470000  -2.768350000
| 19> H   1.359750000  -2.338250000  -3.430940000
| 20> H   1.303000000  -0.879480000  -2.865760000
| 21> O  -1.752130000  -0.741530000  -2.896280000
| 22> H  -2.036450000  -0.920500000  -1.984040000
| 23> H  -0.921210000  -1.242140000  -2.984230000
| 24> O   1.752130000   0.741530000  -2.896280000
| 25> H   2.036450000   0.920500000  -1.984040000
| 26> H   0.921210000   1.242140000  -2.984230000
| 27> O  -0.741530000   1.752130000   2.896280000
| 28> H  -0.920500000   2.036450000   1.984040000
| 29> H  -1.242140000   0.921210000   2.984230000
| 30> *
| 31>
| 32>                          ****END OF INPUT****

CARTESIAN COORDINATES (ANGSTROEM)
---------------------------------
  O      1.794470    0.923410    2.768350
  H      2.338250    1.359750    3.430940
  H      0.879480    1.303000    2.865760
  O      0.923410   -1.794470   -2.768350
  H      1.359750   -2.338250   -3.430940
  H      1.303000   -0.879480   -2.865760
  O     -1.752130   -0.741530   -2.896280
  H     -2.036450   -0.920500   -1.984040
  H     -0.921210   -1.242140   -2.984230
  O      1.752130    0.741530   -2.896280
  H      2.036450    0.920500   -1.984040
  H      0.921210    1.242140   -2.984230
  O     -0.741530    1.752130    2.896280
  H     -0.920500    2.036450    1.984040
  H     -1.242140    0.921210    2.984230

 Total Charge           Charge          ....    0
 Multiplicity           Mult            ....    1
 Number of Electrons    NEL             ....   50
 Basis Dimension        Dim             ....  215

ORBITAL ENERGIES
----------------

  NO   OCC          E(Eh)            E(eV)
   0   2.0000     -20.605464      -560.7032
   1   2.0000     -20.600147      -560.5585
   2   2.0000     -20.544688      -559.0494
   3   2.0000     -20.532590      -558.7202
   4   2.0000     -20.524761      -558.5071
   5   2.0000      -1.390727       -37.8436
   6   2.0000      -1.385919       -37.7128
   7   2.0000      -1.330058       -36.1927
   8   2.0000      -1.313494       -35.7420
   9   2.0000      -1.307168       -35.5698
  10   2.0000      -0.748250       -20.3609
  11   2.0000      -0.742450       -20.2031
  12   2.0000      -0.714554       -19.4440
  13   2.0000      -0.698430       -19.0052
  14   2.0000      -0.682914       -18.5830
  15   2.0000      -0.625254       -17.0140
  16   2.0000      -0.624903       -17.0045
  17   2.0000      -0.581504       -15.8235
  18   2.0000      -0.565497       -15.3879
  19   2.0000      -0.553591       -15.0640
  20   2.0000      -0.527486       -14.3536
  21   2.0000      -0.521843       -14.2001
  22   2.0000      -0.493493       -13.4286
  23   2.0000      -0.480216       -13.0673
  24   2.0000      -0.475162       -12.9298
  25   0.0000       0.096345         2.6217
  26   0.0000       0.114905         3.1267
  27   0.0000       0.156570         4.2605
  28   0.0000       0.167248         4.5511
  29   0.0000       0.173711         4.7269

MULLIKEN ATOMIC CHARGES
-----------------------
   0 O :   -0.732857
   1 H :    0.327223
   2 H :    0.362866
   3 O :   -0.736183
   4 H :    0.340061
   5 H :    0.378286
   6 O :   -0.714782
   7 H :    0.324799
   8 H :    0.363027
   9 O :   -0.686743
  10 H :    0.365405
  11 H :    0.365909
  12 O :   -0.675644
  13 H :    0.356909
  14 H :    0.361724
Sum of atomic charges:    0.0000000

LOEWDIN ATOMIC CHARGES
----------------------
   0 O :   -0.372775
   1 H :    0.149365
   2 H :    0.141039
   3 O :   -0.338721
   4 H :    0.155280
   5 H :    0.145088
   6 O :   -0.352953
   7 H :    0.157889
   8 H :    0.147442
   9 O :   -0.270189
  10 H :    0.177908
  11 H :    0.178128
  12 O :   -0.269885
  13 H :    0.174392
  14 H :    0.177993

  Mayer bond orders larger than 0.100000
B(  0-O ,  1-H ) :   0.8597 B(  0-O ,  2-H ) :   0.7902 B(  3-O ,  4-H ) :   0.8491
B(  3-O ,  5-H ) :   0.7667 B(  6-O ,  7-H ) :   0.8604 B(  6-O ,  8-H ) :   0.8035
B(  9-O , 10-H ) :   0.8326 B(  9-O , 11-H ) :   0.8285 B( 12-O , 13-H ) :   0.8380
B( 12-O , 14-H ) :   0.8347

MP2 TOTAL ENERGY:     -381.592634095 Eh
FINAL SINGLE POINT ENERGY      -381.592634094860

DIPOLE MOMENT
-------------
                                X             Y             Z
Electronic contribution:      0.03202       0.22359      -0.10039
Nuclear contribution   :     -0.19549       0.53316       0.68611
                        -----------------------------------------
Total Dipole Moment    :     -0.16347       0.75675       0.58572
                        -----------------------------------------
Magnitude (a.u.)       :      0.97080
Magnitude (Debye)      :      2.46758

Rotational constants in cm-1:     0.070229     0.019910     0.017431
Rotational constants in MHz :  2105.417677   596.893900   522.569814

                             ****ORCA TERMINATED NORMALLY****
TOTAL RUN TIME: 0 days 0 hours 0 minutes 24 seconds 124 msec
