                         Program Version 4.2.0 -  RELEASE  -
|  1> ! MP2 def2-TZVP EnGrad TightSCF FrozenCore
|  2>
|  3> %pal
|  4>     nprocs 12
|  5> end
|  6>
|  7> %maxcore 8000
|  8>
|  9> %scf
| 10>     ConvForced true
| 11> end
| 12>
| 13> *xyz 0 1
| 14> C     3.918008     1.186174    -1.153389
| 15> H     4.518102     2.069305    -1.387354
| 16> H     4.171309     0.368134    -1.831624
| 17> H     4.115722     0.864145    -0.126746
| 18> C     2.498847     1.502051    -1.281770
| 19> N     1.372719     1.770720    -1.383857
| 20> C    -2.215915     1.931281    -1.301179
| 21> H    -2.592170     1.079414    -1.877064
| 22> H    -1.120336     1.934043    -1.327473
| 23> H    -2.586424     2.858504    -1.746189
| 24> C    -2.682641     1.817457     0.077902
| 25> N    -3.045737     1.724552     1.178225
| 26> C     0.347068     1.844808     1.966385
| 27> H     0.143231     2.189611     0.948226
| 28> H     0.377272     2.702325     2.643351
| 29> H    -0.456628     1.166453     2.261497
| 30> C     1.629328     1.147486     1.977634
| 31> N     2.659029     0.607874     1.983302
| 32> C    -3.803311    -1.452113     1.271658
| 33> H    -4.183876    -2.438986     1.547048
| 34> H    -4.447751    -0.673615     1.686885
| 35> H    -2.794283    -1.316052     1.672460
| 36> C    -3.748399    -1.323273    -0.181807
| 37> N    -3.688541    -1.218860    -1.338015
| 38> C     2.408715    -2.539787     1.449856
| 39> H     1.432700    -2.165794     1.772851
| 40> H     3.177160    -2.096334     2.086988
| 41> H     2.435041    -3.629472     1.532046
| 42> C     2.629112    -2.138847     0.063406
| 43> N     2.792966    -1.831932    -1.045731
| 44> C    -0.323517    -1.090911    -2.130127
| 45> H     0.041937    -0.145101    -2.540367
| 46> H    -1.316188    -1.318463    -2.530628
| 47> H     0.385131    -1.879892    -2.394948
| 48> C    -0.407309    -0.981355    -0.677033
| 49> N    -0.490418    -0.907503     0.480621
| 50> *
| 51>
| 52>                          ****END OF INPUT****

CARTESIAN COORDINATES (ANGSTROEM)
---------------------------------
  C      3.918008    1.186174   -1.153389
  H      4.518102    2.069305   -1.387354
  H      4.171309    0.368134   -1.831624
  H      4.115722    0.864145   -0.126746
  C      2.498847    1.502051   -1.281770
  N      1.372719    1.770720   -1.383857
  C     -2.215915    1.931281   -1.301179
  H     -2.592170    1.079414   -1.877064
  H     -1.120336    1.934043   -1.327473
  H     -2.586424    2.858504   -1.746189
  C     -2.682641    1.817457    0.077902
  N     -3.045737    1.724552    1.178225
  C      0.347068    1.844808    1.966385
  H      0.143231    2.189611    0.948226
  H      0.377272    2.702325    2.643351
  H     -0.456628    1.166453    2.261497
  C      1.629328    1.147486    1.977634
  N      2.659029    0.607874    1.983302
  C     -3.803311   -1.452113    1.271658
  H     -4.183876   -2.438986    1.547048
  H     -4.447751   -0.673615    1.686885
  H     -2.794283   -1.316052    1.672460
  C     -3.748399   -1.323273   -0.181807
  N     -3.688541   -1.218860   -1.338015
  C      2.408715   -2.539787    1.449856
  H      1.432700   -2.165794    1.772851
  H      3.177160   -2.096334    2.086988
  H      2.435041   -3.629472    1.532046
  C      2.629112   -2.138847    0.063406
  N      2.792966   -1.831932   -1.045731
  C     -0.323517   -1.090911   -2.130127
  H      0.041937   -0.145101   -2.540367
  H     -1.316188   -1.318463   -2.530628
  H      0.385131   -1.879892   -2.394948
  C     -0.407309   -0.981355   -0.677033
  N     -0.490418   -0.907503    0.480621

 Total Charge           Charge          ....    0
 Multiplicity           Mult            ....    1
 Number of Electrons    NEL             ....  132
 Basis Dimension        Dim             ....  666

ORBITAL ENERGIES
----------------

  NO   OCC          E(Eh)            E(eV)
   0   2.0000     -15.569361      -423.6638
   1   2.0000     -15.565531      -423.5596
   2   2.0000     -15.565500      -423.5588
   3   2.0000     -15.564593      -423.5341
   4   2.0000     -15.564579      -423.5337
   5   2.0000     -15.562961      -423.4897
   6   2.0000     -11.286194      -307.1130
   7   2.0000     -11.281933      -306.9970
   8   2.0000     -11.280390      -306.9550
   9   2.0000     -11.280188      -306.9495
  10   2.0000     -11.278261      -306.8971
  11   2.0000     -11.277359      -306.8725
  12   2.0000     -11.265921      -306.5613
  13   2.0000     -11.265324      -306.5451
  14   2.0000     -11.264986      -306.5359
  15   2.0000     -11.264307      -306.5174
  16   2.0000     -11.260588      -306.4162
  17   2.0000     -11.259493      -306.3864
  18   2.0000      -1.220966       -33.2242
  19   2.0000      -1.218043       -33.1446
  20   2.0000      -1.215367       -33.0718
  21   2.0000      -1.212854       -33.0034
  22   2.0000      -1.212314       -32.9887
  23   2.0000      -1.211937       -32.9785
  24   2.0000      -1.027227       -27.9523
  25   2.0000      -1.026384       -27.9293
  26   2.0000      -1.024638       -27.8818
  27   2.0000      -1.023138       -27.8410
  28   2.0000      -1.021314       -27.7914
  29   2.0000      -1.018951       -27.7271
  30   2.0000      -0.689160       -18.7530
  31   2.0000      -0.685682       -18.6584
  32   2.0000      -0.684901       -18.6371
  33   2.0000      -0.681708       -18.5502
  34   2.0000      -0.680527       -18.5181
  35   2.0000      -0.680446       -18.5159
  36   2.0000      -0.628450       -17.1010
  37   2.0000      -0.627510       -17.0754
  38   2.0000      -0.621872       -16.9220
  39   2.0000      -0.618746       -16.8369
  40   2.0000      -0.617629       -16.8065
  41   2.0000      -0.616016       -16.7626
  42   2.0000      -0.612944       -16.6790
  43   2.0000      -0.608875       -16.5683
  44   2.0000      -0.606472       -16.5029
  45   2.0000      -0.603787       -16.4299
  46   2.0000      -0.600164       -16.3313
  47   2.0000      -0.599064       -16.3014
  48   2.0000      -0.560539       -15.2530
  49   2.0000      -0.556506       -15.1433
  50   2.0000      -0.554045       -15.0763
  51   2.0000      -0.553519       -15.0620
  52   2.0000      -0.552704       -15.0398
  53   2.0000      -0.550796       -14.9879
  54   2.0000      -0.470618       -12.8062
  55   2.0000      -0.464853       -12.6493
  56   2.0000      -0.463121       -12.6022
  57   2.0000      -0.459339       -12.4992
  58   2.0000      -0.458502       -12.4765
  59   2.0000      -0.457647       -12.4532
  60   2.0000      -0.455228       -12.3874
  61   2.0000      -0.454458       -12.3664
  62   2.0000      -0.453523       -12.3410
  63   2.0000      -0.450687       -12.2638
  64   2.0000      -0.449908       -12.2426
  65   2.0000      -0.447038       -12.1645
  66   0.0000       0.129182         3.5152
  67   0.0000       0.145084         3.9479
  68   0.0000       0.150726         4.1015
  69   0.0000       0.156349         4.2545
  70   0.0000       0.158634         4.3166

MULLIKEN ATOMIC CHARGES
-----------------------
   0 C :   -0.291971
   1 H :    0.169472
   2 H :    0.186027
   3 H :    0.196715
   4 C :   -0.059625
   5 N :   -0.194435
   6 C :   -0.287782
   7 H :    0.191530
   8 H :    0.177533
   9 H :    0.173436
  10 C :   -0.117073
  11 N :   -0.144631
  12 C :   -0.289714
  13 H :    0.171121
  14 H :    0.171079
  15 H :    0.192127
  16 C :   -0.058187
  17 N :   -0.187136
  18 C :   -0.275882
  19 H :    0.167575
  20 H :    0.182760
  21 H :    0.189904
  22 C :   -0.099030
  23 N :   -0.167049
  24 C :   -0.280886
  25 H :    0.187590
  26 H :    0.182723
  27 H :    0.168753
  28 C :   -0.078366
  29 N :   -0.179597
  30 C :   -0.317639
  31 H :    0.184505
  32 H :    0.202378
  33 H :    0.188451
  34 C :   -0.010818
  35 N :   -0.243858
Sum of atomic charges:    0.0000000

LOEWDIN ATOMIC CHARGES
----------------------
   0 C :   -0.281551
   1 H :    0.147414
   2 H :    0.154618
   3 H :    0.156196
   4 C :   -0.190203
   5 N :    0.018962
   6 C :   -0.284919
   7 H :    0.153885
   8 H :    0.150999
   9 H :    0.149520
  10 C :   -0.210705
  11 N :    0.033128
  12 C :   -0.283151
  13 H :    0.152417
  14 H :    0.148100
  15 H :    0.155479
  16 C :   -0.197787
  17 N :    0.025626
  18 C :   -0.283965
  19 H :    0.146646
  20 H :    0.154504
  21 H :    0.155052
  22 C :   -0.201970
  23 N :    0.023655
  24 C :   -0.285169
  25 H :    0.154507
  26 H :    0.153706
  27 H :    0.146502
  28 C :   -0.199581
  29 N :    0.030873
  30 C :   -0.285020
  31 H :    0.152232
  32 H :    0.152321
  33 H :    0.153882
  34 C :   -0.196990
  35 N :    0.030786

  Mayer bond orders larger than 0.100000
B(  0-C ,  1-H ) :   0.9094 B(  0-C ,  2-H ) :   0.9135 B(  0-C ,  3-H ) :   0.9088
B(  0-C ,  4-C ) :   0.8925 B(  4-C ,  5-N ) :   2.7191 B(  6-C ,  7-H ) :   0.9132
B(  6-C ,  8-H ) :   0.9079 B(  6-C ,  9-H ) :   0.9098 B(  6-C , 10-C ) :   0.8899
B( 10-C , 11-N ) :   2.7702 B( 12-C , 13-H ) :   0.9143 B( 12-C , 14-H ) :   0.9113
B( 12-C , 15-H ) :   0.9097 B( 12-C , 16-C ) :   0.9007 B( 16-C , 17-N ) :   2.7284
B( 18-C , 19-H ) :   0.9101 B( 18-C , 20-H ) :   0.9109 B( 18-C , 21-H ) :   0.9075
B( 18-C , 22-C ) :   0.9072 B( 22-C , 23-N ) :   2.7421 B( 24-C , 25-H ) :   0.9118
B( 24-C , 26-H ) :   0.9140 B( 24-C , 27-H ) :   0.9102 B( 24-C , 28-C ) :   0.8949
B( 28-C , 29-N ) :   2.7307 B( 30-C , 31-H ) :   0.9151 B( 30-C , 32-H ) :   0.9090
B( 30-C , 33-H ) :   0.9056 B( 30-C , 34-C ) :   0.8698 B( 34-C , 35-N ) :   2.6218

MP2 TOTAL ENERGY:     -794.958044565 Eh
FINAL SINGLE POINT ENERGY      -794.958044564857

DIPOLE MOMENT
-------------
                                X             Y             Z
Electronic contribution:     -0.76777       0.24040      -0.22714
Nuclear contribution   :      1.30597      -0.43370       0.39073
                        -----------------------------------------
Total Dipole Moment    :      0.53820      -0.19331       0.16359
                        -----------------------------------------
Magnitude (a.u.)       :      0.59480
Magnitude (Debye)      :      1.51186

Rotational constants in cm-1:     0.015451     0.008054     0.007459
Rotational constants in MHz :   463.202795   241.443147   223.607395

                             ****ORCA TERMINATED NORMALLY****
TOTAL RUN TIME: 0 days 0 hours 43 minutes 12 seconds 722 msec
