                         Program Version 4.2.0 -  RELEASE  -
|  1> # 12h2o.su.etal.mol0,1,4,5,6,7,8,11
|  2> ! MP2 def2-TZVP EnGrad TightSCF
|  3>
|  4> %pal
|  5>     nprocs 6
|  6> end
|  7>
|  8> %maxcore 8000
|  9>
| 10> %scf
| 11>     ConvForced true
| 12> end
| 13>
| 14> *xyz 0 1
| 15> O   1.794470000   0.923410000   2.768350000
| 16> H   2.338250000   1.359750000   3.430940000
| 17> H   0.879480000   1.303000000   2.865760000
| 18> O  -1.794470000  -0.923410000   2.768350000
| 19> H  -2.338250000  -1.359750000   3.430940000
| 20> H  -0.879480000  -1.303000000   2.865760000
| 21> O  -0.885520000   1.737840000   0.052730000
| 22> H  -1.032320000   2.090180000  -0.841890000
| 23> H  -1.284090000   0.839590000   0.017130000
| 24> O   0.885520000  -1.737840000   0.052730000
| 25> H   1.284090000  -0.839590000   0.017130000
| 26> H   1.032320000  -2.090180000  -0.841890000
| 27> O   1.737840000   0.885520000  -0.052730000
| 28> H   2.090180000   1.032320000   0.841890000
| 29> H   0.839590000   1.284090000  -0.017130000
| 30> O  -1.737840000  -0.885520000  -0.052730000
| 31> H  -2.090180000  -1.032320000   0.841890000
| 32> H  -0.839590000  -1.284090000  -0.017130000
| 33> O   1.752130000   0.741530000  -2.896280000
| 34> H   2.036450000   0.920500000  -1.984040000
| 35> H   0.921210000   1.242140000  -2.984230000
| 36> O  -0.741530000   1.752130000   2.896280000
| 37> H  -0.920500000   2.036450000   1.984040000
| 38> H  -1.242140000   0.921210000   2.984230000
| 39> *
| 40>
| 41>                          ****END OF INPUT****

CARTESIAN COORDINATES (ANGSTROEM)
---------------------------------
  O      1.794470    0.923410    2.768350
  H      2.338250    1.359750    3.430940
  H      0.879480    1.303000    2.865760
  O     -1.794470   -0.923410    2.768350
  H     -2.338250   -1.359750    3.430940
  H     -0.879480   -1.303000    2.865760
  O     -0.885520    1.737840    0.052730
  H     -1.032320    2.090180   -0.841890
  H     -1.284090    0.839590    0.017130
  O      0.885520   -1.737840    0.052730
  H      1.284090   -0.839590    0.017130
  H      1.032320   -2.090180   -0.841890
  O      1.737840    0.885520   -0.052730
  H      2.090180    1.032320    0.841890
  H      0.839590    1.284090   -0.017130
  O     -1.737840   -0.885520   -0.052730
  H     -2.090180   -1.032320    0.841890
  H     -0.839590   -1.284090   -0.017130
  O      1.752130    0.741530   -2.896280
  H      2.036450    0.920500   -1.984040
  H      0.921210    1.242140   -2.984230
  O     -0.741530    1.752130    2.896280
  H     -0.920500    2.036450    1.984040
  H     -1.242140    0.921210    2.984230

 Total Charge           Charge          ....    0
 Multiplicity           Mult            ....    1
 Number of Electrons    NEL             ....   80
 Basis Dimension        Dim             ....  344

ORBITAL ENERGIES
----------------

  NO   OCC          E(Eh)            E(eV)
   0   2.0000     -20.619978      -561.0981
   1   2.0000     -20.587066      -560.2025
   2   2.0000     -20.562922      -559.5456
   3   2.0000     -20.555436      -559.3419
   4   2.0000     -20.553173      -559.2803
   5   2.0000     -20.549301      -559.1749
   6   2.0000     -20.546772      -559.1061
   7   2.0000     -20.536298      -558.8211
   8   2.0000      -1.400699       -38.1150
   9   2.0000      -1.379882       -37.5485
  10   2.0000      -1.355998       -36.8986
  11   2.0000      -1.351507       -36.7764
  12   2.0000      -1.341996       -36.5176
  13   2.0000      -1.329484       -36.1771
  14   2.0000      -1.325378       -36.0654
  15   2.0000      -1.317166       -35.8419
  16   2.0000      -0.766043       -20.8451
  17   2.0000      -0.741767       -20.1845
  18   2.0000      -0.721434       -19.6312
  19   2.0000      -0.718815       -19.5599
  20   2.0000      -0.713172       -19.4064
  21   2.0000      -0.710064       -19.3218
  22   2.0000      -0.707488       -19.2517
  23   2.0000      -0.686530       -18.6814
  24   2.0000      -0.649881       -17.6841
  25   2.0000      -0.628960       -17.1149
  26   2.0000      -0.610183       -16.6039
  27   2.0000      -0.603333       -16.4175
  28   2.0000      -0.587729       -15.9929
  29   2.0000      -0.580729       -15.8024
  30   2.0000      -0.561647       -15.2832
  31   2.0000      -0.550737       -14.9863
  32   2.0000      -0.548404       -14.9228
  33   2.0000      -0.527720       -14.3600
  34   2.0000      -0.506349       -13.7785
  35   2.0000      -0.502159       -13.6644
  36   2.0000      -0.501062       -13.6346
  37   2.0000      -0.496471       -13.5097
  38   2.0000      -0.496082       -13.4991
  39   2.0000      -0.482436       -13.1277
  40   0.0000       0.092469         2.5162
  41   0.0000       0.110819         3.0155
  42   0.0000       0.146507         3.9867
  43   0.0000       0.160580         4.3696
  44   0.0000       0.187032         5.0894

MULLIKEN ATOMIC CHARGES
-----------------------
   0 O :   -0.746039
   1 H :    0.338539
   2 H :    0.372664
   3 O :   -0.728521
   4 H :    0.367669
   5 H :    0.386366
   6 O :   -0.741844
   7 H :    0.354951
   8 H :    0.374069
   9 O :   -0.728457
  10 H :    0.381760
  11 H :    0.354703
  12 O :   -0.757309
  13 H :    0.387564
  14 H :    0.351087
  15 O :   -0.728788
  16 H :    0.371487
  17 H :    0.359960
  18 O :   -0.694058
  19 H :    0.375379
  20 H :    0.312172
  21 O :   -0.715749
  22 H :    0.386893
  23 H :    0.365501
Sum of atomic charges:   -0.0000000

LOEWDIN ATOMIC CHARGES
----------------------
   0 O :   -0.344600
   1 H :    0.154569
   2 H :    0.143260
   3 O :   -0.289397
   4 H :    0.169761
   5 H :    0.197720
   6 O :   -0.297901
   7 H :    0.168533
   8 H :    0.146815
   9 O :   -0.313458
  10 H :    0.146412
  11 H :    0.169133
  12 O :   -0.302775
  13 H :    0.154383
  14 H :    0.138322
  15 O :   -0.315356
  16 H :    0.146951
  17 H :    0.140600
  18 O :   -0.339905
  19 H :    0.151472
  20 H :    0.154120
  21 O :   -0.284346
  22 H :    0.156780
  23 H :    0.148907

  Mayer bond orders larger than 0.100000
B(  0-O ,  1-H ) :   0.8498 B(  0-O ,  2-H ) :   0.7494 B(  2-H , 21-O ) :   0.1121
B(  3-O ,  4-H ) :   0.8299 B(  3-O ,  5-H ) :   0.8080 B(  6-O ,  7-H ) :   0.8370
B(  6-O ,  8-H ) :   0.7367 B(  8-H , 15-O ) :   0.1326 B(  9-O , 10-H ) :   0.7626
B(  9-O , 11-H ) :   0.8383 B(  9-O , 17-H ) :   0.1156 B( 12-O , 13-H ) :   0.7868
B( 12-O , 14-H ) :   0.7736 B( 15-O , 16-H ) :   0.8160 B( 15-O , 17-H ) :   0.7673
B( 18-O , 19-H ) :   0.8127 B( 18-O , 20-H ) :   0.8662 B( 21-O , 22-H ) :   0.8047
B( 21-O , 23-H ) :   0.8104

MP2 TOTAL ENERGY:     -610.601541684 Eh
FINAL SINGLE POINT ENERGY      -610.601541684324

DIPOLE MOMENT
-------------
                                X             Y             Z
Electronic contribution:     -0.17087      -0.17672       0.22377
Nuclear contribution   :     -1.02062       0.11069       1.26519
                        -----------------------------------------
Total Dipole Moment    :     -1.19149      -0.06604       1.48896
                        -----------------------------------------
Magnitude (a.u.)       :      1.90814
Magnitude (Debye)      :      4.85011

Rotational constants in cm-1:     0.036159     0.022193     0.019230
Rotational constants in MHz :  1084.027654   665.325170   576.487005

                             ****ORCA TERMINATED NORMALLY****
TOTAL RUN TIME: 0 days 0 hours 3 minutes 7 seconds 374 msec
