                         Program Version 4.2.0 -  RELEASE  -
|  1> # 12mecn.remya.etal.2.mol0,7,9
|  2> ! MP2 def2-TZVP EnGrad TightSCF
|  3>
|  4> %pal
|  5>     nprocs 6
|  6> end
|  7>
|  8> %maxcore 8000
|  9>
| 10> %scf
| 11>     ConvForced true
| 12> end
| 13>
| 14> *xyz 0 1
| 15> C  -0.869520000  -3.929380000   1.700199000
| 16> H  -0.057420000  -3.268850000   2.015352000
| 17> H  -0.697530000  -4.930670000   2.101524000
| 18> H  -1.821490000  -3.546590000   2.077146000
| 19> C  -0.916080000  -3.969960000   0.256749000
| 20> N  -0.955390000  -3.995980000  -0.909290000
| 21> C   1.502241000   0.651296000   1.710523000
| 22> H   1.309219000   1.637164000   2.143202000
| 23> H   2.493408000   0.297996000   2.009069000
| 24> H   0.746597000  -0.059850000   2.055508000
| 25> C   1.447974000   0.738517000   0.269805000
| 26> N   1.405612000   0.808047000  -0.894380000
| 27> C   0.923766000   4.000693000  -1.575910000
| 28> H   0.011949000   4.478423000  -1.939550000
| 29> H   0.947903000   2.966558000  -1.929960000
| 30> H   1.805950000   4.519548000  -1.956520000
| 31> C   0.942834000   3.994846000  -0.131200000
| 32> N   0.960035000   3.982544000   1.035639000
| 33> *
| 34>
| 35>                          ****END OF INPUT****

CARTESIAN COORDINATES (ANGSTROEM)
---------------------------------
  C     -0.869520   -3.929380    1.700199
  H     -0.057420   -3.268850    2.015352
  H     -0.697530   -4.930670    2.101524
  H     -1.821490   -3.546590    2.077146
  C     -0.916080   -3.969960    0.256749
  N     -0.955390   -3.995980   -0.909290
  C      1.502241    0.651296    1.710523
  H      1.309219    1.637164    2.143202
  H      2.493408    0.297996    2.009069
  H      0.746597   -0.059850    2.055508
  C      1.447974    0.738517    0.269805
  N      1.405612    0.808047   -0.894380
  C      0.923766    4.000693   -1.575910
  H      0.011949    4.478423   -1.939550
  H      0.947903    2.966558   -1.929960
  H      1.805950    4.519548   -1.956520
  C      0.942834    3.994846   -0.131200
  N      0.960035    3.982544    1.035639

 Total Charge           Charge          ....    0
 Multiplicity           Mult            ....    1
 Number of Electrons    NEL             ....   66
 Basis Dimension        Dim             ....  333

ORBITAL ENERGIES
----------------

  NO   OCC          E(Eh)            E(eV)
   0   2.0000     -15.573997      -423.7900
   1   2.0000     -15.572381      -423.7460
   2   2.0000     -15.569595      -423.6702
   3   2.0000     -11.288090      -307.1645
   4   2.0000     -11.283808      -307.0480
   5   2.0000     -11.281600      -306.9879
   6   2.0000     -11.280284      -306.9521
   7   2.0000     -11.277709      -306.8821
   8   2.0000     -11.268897      -306.6423
   9   2.0000      -1.217997       -33.1434
  10   2.0000      -1.214785       -33.0560
  11   2.0000      -1.212967       -33.0065
  12   2.0000      -1.046771       -28.4841
  13   2.0000      -1.040189       -28.3050
  14   2.0000      -1.033033       -28.1103
  15   2.0000      -0.702455       -19.1148
  16   2.0000      -0.696522       -18.9533
  17   2.0000      -0.690380       -18.7862
  18   2.0000      -0.635934       -17.3046
  19   2.0000      -0.634740       -17.2722
  20   2.0000      -0.632034       -17.1985
  21   2.0000      -0.627650       -17.0792
  22   2.0000      -0.622263       -16.9326
  23   2.0000      -0.615077       -16.7371
  24   2.0000      -0.558709       -15.2032
  25   2.0000      -0.555948       -15.1281
  26   2.0000      -0.555434       -15.1141
  27   2.0000      -0.461134       -12.5481
  28   2.0000      -0.460056       -12.5188
  29   2.0000      -0.457979       -12.4623
  30   2.0000      -0.457907       -12.4603
  31   2.0000      -0.455966       -12.4075
  32   2.0000      -0.453423       -12.3383
  33   0.0000       0.097899         2.6640
  34   0.0000       0.134261         3.6534
  35   0.0000       0.144217         3.9243
  36   0.0000       0.164270         4.4700
  37   0.0000       0.168922         4.5966

MULLIKEN ATOMIC CHARGES
-----------------------
   0 C :   -0.280953
   1 H :    0.162845
   2 H :    0.175194
   3 H :    0.173598
   4 C :   -0.143943
   5 N :   -0.086777
   6 C :   -0.287348
   7 H :    0.208469
   8 H :    0.168164
   9 H :    0.154949
  10 C :   -0.093432
  11 N :   -0.149080
  12 C :   -0.284671
  13 H :    0.165880
  14 H :    0.208183
  15 H :    0.165338
  16 C :   -0.106859
  17 N :   -0.149555
Sum of atomic charges:   -0.0000000

LOEWDIN ATOMIC CHARGES
----------------------
   0 C :   -0.284635
   1 H :    0.149300
   2 H :    0.152050
   3 H :    0.152962
   4 C :   -0.220517
   5 N :    0.050788
   6 C :   -0.282225
   7 H :    0.157757
   8 H :    0.152507
   9 H :    0.147912
  10 C :   -0.207738
  11 N :    0.035817
  12 C :   -0.282493
  13 H :    0.150312
  14 H :    0.157802
  15 H :    0.151660
  16 C :   -0.208555
  17 N :    0.027295

  Mayer bond orders larger than 0.100000
B(  0-C ,  1-H ) :   0.9190 B(  0-C ,  2-H ) :   0.9168 B(  0-C ,  3-H ) :   0.9170
B(  0-C ,  4-C ) :   0.9004 B(  4-C ,  5-N ) :   2.8318 B(  6-C ,  7-H ) :   0.9024
B(  6-C ,  8-H ) :   0.9164 B(  6-C ,  9-H ) :   0.9189 B(  6-C , 10-C ) :   0.8984
B( 10-C , 11-N ) :   2.7578 B( 12-C , 13-H ) :   0.9157 B( 12-C , 14-H ) :   0.9004
B( 12-C , 15-H ) :   0.9146 B( 12-C , 16-C ) :   0.9025 B( 16-C , 17-N ) :   2.7821

MP2 TOTAL ENERGY:     -397.458242331 Eh
FINAL SINGLE POINT ENERGY      -397.458242331246

DIPOLE MOMENT
-------------
                                X             Y             Z
Electronic contribution:     -0.18087       0.09701      -3.16695
Nuclear contribution   :      0.26742      -0.16693       4.60863
                        -----------------------------------------
Total Dipole Moment    :      0.08654      -0.06992       1.44168
                        -----------------------------------------
Magnitude (a.u.)       :      1.44597
Magnitude (Debye)      :      3.67535

Rotational constants in cm-1:     0.080578     0.011576     0.010673
Rotational constants in MHz :  2415.680527   347.034698   319.954223

                             ****ORCA TERMINATED NORMALLY****
TOTAL RUN TIME: 0 days 0 hours 3 minutes 4 seconds 761 msec
