                         Program Version 4.2.0 -  RELEASE  -
|  1> # 12meoh.boyd.etal.mol6,8
|  2> ! MP2 def2-TZVP EnGrad TightSCF
|  3>
|  4> %pal
|  5>     nprocs 6
|  6> end
|  7>
|  8> %maxcore 8000
|  9>
| 10> %scf
| 11>     ConvForced true
| 12> end
| 13>
| 14> *xyz 0 1
| 15> O   2.622209273  -1.703002590  -1.445859723
| 16> H   1.828551432  -1.986513781  -0.909754968
| 17> C   2.781117675  -2.615822239  -2.525472890
| 18> H   3.691063626  -2.339003544  -3.065143454
| 19> H   1.934727323  -2.559520367  -3.223226661
| 20> H   2.879948338  -3.653846211  -2.177750170
| 21> O   3.570084754   2.361662577  -0.202416728
| 22> H   3.393280933   1.755669977   0.560634073
| 23> C   4.368082883   1.644741793  -1.143112807
| 24> H   4.552851717   2.311801738  -1.989632421
| 25> H   3.862427494   0.740851663  -1.508095690
| 26> H   5.333949674   1.357289092  -0.706288100
| 27> *
| 28>
| 29>                          ****END OF INPUT****

CARTESIAN COORDINATES (ANGSTROEM)
---------------------------------
  O      2.622209   -1.703003   -1.445860
  H      1.828551   -1.986514   -0.909755
  C      2.781118   -2.615822   -2.525473
  H      3.691064   -2.339004   -3.065143
  H      1.934727   -2.559520   -3.223227
  H      2.879948   -3.653846   -2.177750
  O      3.570085    2.361663   -0.202417
  H      3.393281    1.755670    0.560634
  C      4.368083    1.644742   -1.143113
  H      4.552852    2.311802   -1.989632
  H      3.862427    0.740852   -1.508096
  H      5.333950    1.357289   -0.706288

 Total Charge           Charge          ....    0
 Multiplicity           Mult            ....    1
 Number of Electrons    NEL             ....   36
 Basis Dimension        Dim             ....  172

ORBITAL ENERGIES
----------------

  NO   OCC          E(Eh)            E(eV)
   0   2.0000     -20.565918      -559.6271
   1   2.0000     -20.544476      -559.0436
   2   2.0000     -11.277731      -306.8827
   3   2.0000     -11.255521      -306.2783
   4   2.0000      -1.354012       -36.8445
   5   2.0000      -1.333766       -36.2936
   6   2.0000      -0.925860       -25.1939
   7   2.0000      -0.905046       -24.6276
   8   2.0000      -0.688778       -18.7426
   9   2.0000      -0.668057       -18.1787
  10   2.0000      -0.623731       -16.9726
  11   2.0000      -0.604337       -16.4448
  12   2.0000      -0.596530       -16.2324
  13   2.0000      -0.576379       -15.6841
  14   2.0000      -0.507909       -13.8209
  15   2.0000      -0.487077       -13.2541
  16   2.0000      -0.456459       -12.4209
  17   2.0000      -0.435461       -11.8495
  18   0.0000       0.123767         3.3679
  19   0.0000       0.151801         4.1307
  20   0.0000       0.171110         4.6561
  21   0.0000       0.188337         5.1249
  22   0.0000       0.219312         5.9678

MULLIKEN ATOMIC CHARGES
-----------------------
   0 O :   -0.495921
   1 H :    0.321890
   2 C :   -0.172653
   3 H :    0.130356
   4 H :    0.112851
   5 H :    0.112081
   6 O :   -0.504099
   7 H :    0.318963
   8 C :   -0.180633
   9 H :    0.120375
  10 H :    0.134411
  11 H :    0.102381
Sum of atomic charges:    0.0000000

LOEWDIN ATOMIC CHARGES
----------------------
   0 O :   -0.109414
   1 H :    0.193551
   2 C :   -0.381288
   3 H :    0.110551
   4 H :    0.096621
   5 H :    0.096881
   6 O :   -0.113362
   7 H :    0.186710
   8 C :   -0.381644
   9 H :    0.107139
  10 H :    0.100434
  11 H :    0.093820

  Mayer bond orders larger than 0.100000
B(  0-O ,  1-H ) :   0.8388 B(  0-O ,  2-C ) :   0.9183 B(  2-C ,  3-H ) :   0.9386
B(  2-C ,  4-H ) :   0.9384 B(  2-C ,  5-H ) :   0.9360 B(  6-O ,  7-H ) :   0.8453
B(  6-O ,  8-C ) :   0.9161 B(  8-C ,  9-H ) :   0.9366 B(  8-C , 10-H ) :   0.9336
B(  8-C , 11-H ) :   0.9414

MP2 TOTAL ENERGY:     -231.015359939 Eh
FINAL SINGLE POINT ENERGY      -231.015359939120

DIPOLE MOMENT
-------------
                                X             Y             Z
Electronic contribution:     -1.11778       2.12964       2.35884
Nuclear contribution   :      0.86793      -3.44247      -2.41405
                        -----------------------------------------
Total Dipole Moment    :     -0.24985      -1.31283      -0.05521
                        -----------------------------------------
Magnitude (a.u.)       :      1.33753
Magnitude (Debye)      :      3.39974

Rotational constants in cm-1:     0.597442     0.047852     0.045302
Rotational constants in MHz : 17910.848404  1434.573361  1358.109294

                             ****ORCA TERMINATED NORMALLY****
TOTAL RUN TIME: 0 days 0 hours 0 minutes 21 seconds 494 msec
