                         Program Version 4.2.0 -  RELEASE  -
|  1> # 12h2o.su.etal.mol0,1,3,4,6,8,9
|  2> ! MP2 def2-TZVP EnGrad TightSCF
|  3>
|  4> %pal
|  5>     nprocs 6
|  6> end
|  7>
|  8> %maxcore 8000
|  9>
| 10> %scf
| 11>     ConvForced true
| 12> end
| 13>
| 14> *xyz 0 1
| 15> O   1.794470000   0.923410000   2.768350000
| 16> H   2.338250000   1.359750000   3.430940000
| 17> H   0.879480000   1.303000000   2.865760000
| 18> O  -1.794470000  -0.923410000   2.768350000
| 19> H  -2.338250000  -1.359750000   3.430940000
| 20> H  -0.879480000  -1.303000000   2.865760000
| 21> O  -1.752130000  -0.741530000  -2.896280000
| 22> H  -2.036450000  -0.920500000  -1.984040000
| 23> H  -0.921210000  -1.242140000  -2.984230000
| 24> O  -0.885520000   1.737840000   0.052730000
| 25> H  -1.032320000   2.090180000  -0.841890000
| 26> H  -1.284090000   0.839590000   0.017130000
| 27> O   1.737840000   0.885520000  -0.052730000
| 28> H   2.090180000   1.032320000   0.841890000
| 29> H   0.839590000   1.284090000  -0.017130000
| 30> O   1.752130000   0.741530000  -2.896280000
| 31> H   2.036450000   0.920500000  -1.984040000
| 32> H   0.921210000   1.242140000  -2.984230000
| 33> O   0.741530000  -1.752130000   2.896280000
| 34> H   0.920500000  -2.036450000   1.984040000
| 35> H   1.242140000  -0.921210000   2.984230000
| 36> *
| 37>
| 38>                          ****END OF INPUT****

CARTESIAN COORDINATES (ANGSTROEM)
---------------------------------
  O      1.794470    0.923410    2.768350
  H      2.338250    1.359750    3.430940
  H      0.879480    1.303000    2.865760
  O     -1.794470   -0.923410    2.768350
  H     -2.338250   -1.359750    3.430940
  H     -0.879480   -1.303000    2.865760
  O     -1.752130   -0.741530   -2.896280
  H     -2.036450   -0.920500   -1.984040
  H     -0.921210   -1.242140   -2.984230
  O     -0.885520    1.737840    0.052730
  H     -1.032320    2.090180   -0.841890
  H     -1.284090    0.839590    0.017130
  O      1.737840    0.885520   -0.052730
  H      2.090180    1.032320    0.841890
  H      0.839590    1.284090   -0.017130
  O      1.752130    0.741530   -2.896280
  H      2.036450    0.920500   -1.984040
  H      0.921210    1.242140   -2.984230
  O      0.741530   -1.752130    2.896280
  H      0.920500   -2.036450    1.984040
  H      1.242140   -0.921210    2.984230

 Total Charge           Charge          ....    0
 Multiplicity           Mult            ....    1
 Number of Electrons    NEL             ....   70
 Basis Dimension        Dim             ....  301

ORBITAL ENERGIES
----------------

  NO   OCC          E(Eh)            E(eV)
   0   2.0000     -20.620558      -561.1139
   1   2.0000     -20.601038      -560.5827
   2   2.0000     -20.578938      -559.9814
   3   2.0000     -20.569948      -559.7367
   4   2.0000     -20.538492      -558.8808
   5   2.0000     -20.531194      -558.6822
   6   2.0000     -20.527736      -558.5881
   7   2.0000      -1.401167       -38.1277
   8   2.0000      -1.381690       -37.5977
   9   2.0000      -1.367525       -37.2123
  10   2.0000      -1.348917       -36.7059
  11   2.0000      -1.326212       -36.0881
  12   2.0000      -1.312878       -35.7252
  13   2.0000      -1.308256       -35.5995
  14   2.0000      -0.766741       -20.8641
  15   2.0000      -0.739160       -20.1136
  16   2.0000      -0.729799       -19.8588
  17   2.0000      -0.711484       -19.3605
  18   2.0000      -0.708002       -19.2657
  19   2.0000      -0.700028       -19.0487
  20   2.0000      -0.677136       -18.4258
  21   2.0000      -0.644040       -17.5252
  22   2.0000      -0.623586       -16.9686
  23   2.0000      -0.608341       -16.5538
  24   2.0000      -0.586748       -15.9662
  25   2.0000      -0.584661       -15.9094
  26   2.0000      -0.563980       -15.3467
  27   2.0000      -0.554612       -15.0918
  28   2.0000      -0.543726       -14.7955
  29   2.0000      -0.525925       -14.3111
  30   2.0000      -0.514018       -13.9871
  31   2.0000      -0.512245       -13.9389
  32   2.0000      -0.490066       -13.3354
  33   2.0000      -0.482081       -13.1181
  34   2.0000      -0.473660       -12.8890
  35   0.0000       0.080587         2.1929
  36   0.0000       0.103117         2.8060
  37   0.0000       0.136887         3.7249
  38   0.0000       0.149868         4.0781
  39   0.0000       0.163364         4.4454

MULLIKEN ATOMIC CHARGES
-----------------------
   0 O :   -0.723768
   1 H :    0.366602
   2 H :    0.383655
   3 O :   -0.743837
   4 H :    0.330364
   5 H :    0.365275
   6 O :   -0.681212
   7 H :    0.328651
   8 H :    0.354417
   9 O :   -0.683076
  10 H :    0.357583
  11 H :    0.362590
  12 O :   -0.741824
  13 H :    0.364401
  14 H :    0.339260
  15 O :   -0.699183
  16 H :    0.375298
  17 H :    0.313716
  18 O :   -0.700392
  19 H :    0.357108
  20 H :    0.374370
Sum of atomic charges:   -0.0000000

LOEWDIN ATOMIC CHARGES
----------------------
   0 O :   -0.287935
   1 H :    0.169306
   2 H :    0.196408
   3 O :   -0.378454
   4 H :    0.151133
   5 H :    0.140742
   6 O :   -0.330284
   7 H :    0.159609
   8 H :    0.172428
   9 O :   -0.287915
  10 H :    0.171906
  11 H :    0.179858
  12 O :   -0.348102
  13 H :    0.146163
  14 H :    0.137019
  15 O :   -0.341830
  16 H :    0.153348
  17 H :    0.152355
  18 O :   -0.281300
  19 H :    0.172632
  20 H :    0.152912

  Mayer bond orders larger than 0.100000
B(  0-O ,  1-H ) :   0.8307 B(  0-O ,  2-H ) :   0.8103 B(  3-O ,  4-H ) :   0.8576
B(  3-O ,  5-H ) :   0.7736 B(  6-O ,  7-H ) :   0.8561 B(  6-O ,  8-H ) :   0.8381
B(  9-O , 10-H ) :   0.8364 B(  9-O , 11-H ) :   0.8260 B( 12-O , 13-H ) :   0.8231
B( 12-O , 14-H ) :   0.7894 B( 15-O , 16-H ) :   0.8109 B( 15-O , 17-H ) :   0.8632
B( 18-O , 19-H ) :   0.8368 B( 18-O , 20-H ) :   0.8033

MP2 TOTAL ENERGY:     -534.238234254 Eh
FINAL SINGLE POINT ENERGY      -534.238234253899

DIPOLE MOMENT
-------------
                                X             Y             Z
Electronic contribution:      0.24382       0.04565       0.03764
Nuclear contribution   :     -0.34268       0.45452       1.95129
                        -----------------------------------------
Total Dipole Moment    :     -0.09886       0.50017       1.98894
                        -----------------------------------------
Magnitude (a.u.)       :      2.05324
Magnitude (Debye)      :      5.21893

Rotational constants in cm-1:     0.036789     0.019939     0.015844
Rotational constants in MHz :  1102.902284   597.767871   474.984329

                             ****ORCA TERMINATED NORMALLY****
TOTAL RUN TIME: 0 days 0 hours 1 minutes 55 seconds 646 msec
