                         Program Version 3.0.3 - RELEASE   -
|  1> ! wB97X-D3 MA-Def2-TZVP def2-TZVP/J RIJCOSX TightSCF Grid4
|  2>
|  3> %pal nprocs 1 end
|  4>
|  5> %scf
|  6>         maxiter 400
|  7> end
|  8>
|  9> %cosmo
| 10>         SMD true
| 11>         solvent "WATER"
| 12> end
| 13>
| 14> * xyz  0  1
| 15> O  0.565907	0.022341	-1.840124
| 16> H  -0.268364	0.083197	-2.366845
| 17> H  0.449142	0.743390	-1.166087
| 18> O  -2.831873	-1.548204	-0.847148
| 19> H  -1.969453	-1.925845	-0.573188
| 20> H  -3.045619	-0.910826	-0.126210
| 21> O  2.350005	-2.214355	0.741685
| 22> H  2.745728	-1.638296	0.027135
| 23> H  2.940187	-2.978421	0.827675
| 24> O  -2.001309	0.312896	-2.552987
| 25> H  -2.378432	-0.432200	-2.001837
| 26> H  -2.440752	0.252492	-3.415139
| 27> O  -3.095696	0.429187	1.075380
| 28> H  -2.286738	0.272352	1.615154
| 29> H  -3.834026	0.452873	1.703391
| 30> O  1.995337	-0.227845	2.637162
| 31> H  2.185746	-1.031762	2.100069
| 32> H  2.360930	0.494201	2.077110
| 33> O  -0.185426	-1.923318	-0.138372
| 34> H  0.667409	-2.300072	0.186799
| 35> H  0.108690	-1.266664	-0.824487
| 36> O  -0.581868	-0.135625	1.878803
| 37> H  -0.477966	-0.848577	1.194088
| 38> H  0.297376	-0.151770	2.347756
| 39> O  2.794289	1.576291	0.709334
| 40> H  3.350057	2.345940	0.905100
| 41> H  1.906074	1.936856	0.478032
| 42> O  3.167727	-0.464752	-1.113056
| 43> H  3.191797	0.321996	-0.520722
| 44> H  2.329491	-0.341361	-1.606753
| 45> O  0.160197	1.824224	0.155787
| 46> H  -0.117104	1.163106	0.842397
| 47> H  -0.699881	2.209316	-0.166144
| 48> O  -2.338293	2.364339	-0.719646
| 49> H  -2.741242	1.787693	-0.031510
| 50> H  -2.275916	1.754593	-1.491847
| 51> **                         ****END OF INPUT****

CARTESIAN COORDINATES (ANGSTROEM)
---------------------------------
  O      0.565907    0.022341   -1.840124
  H     -0.268364    0.083197   -2.366845
  H      0.449142    0.743390   -1.166087
  O     -2.831873   -1.548204   -0.847148
  H     -1.969453   -1.925845   -0.573188
  H     -3.045619   -0.910826   -0.126210
  O      2.350005   -2.214355    0.741685
  H      2.745728   -1.638296    0.027135
  H      2.940187   -2.978421    0.827675
  O     -2.001309    0.312896   -2.552987
  H     -2.378432   -0.432200   -2.001837
  H     -2.440752    0.252492   -3.415139
  O     -3.095696    0.429187    1.075380
  H     -2.286738    0.272352    1.615154
  H     -3.834026    0.452873    1.703391
  O      1.995337   -0.227845    2.637162
  H      2.185746   -1.031762    2.100069
  H      2.360930    0.494201    2.077110
  O     -0.185426   -1.923318   -0.138372
  H      0.667409   -2.300072    0.186799
  H      0.108690   -1.266664   -0.824487
  O     -0.581868   -0.135625    1.878803
  H     -0.477966   -0.848577    1.194088
  H      0.297376   -0.151770    2.347756
  O      2.794289    1.576291    0.709334
  H      3.350057    2.345940    0.905100
  H      1.906074    1.936856    0.478032
  O      3.167727   -0.464752   -1.113056
  H      3.191797    0.321996   -0.520722
  H      2.329491   -0.341361   -1.606753
  O      0.160197    1.824224    0.155787
  H     -0.117104    1.163106    0.842397
  H     -0.699881    2.209316   -0.166144
  O     -2.338293    2.364339   -0.719646
  H     -2.741242    1.787693   -0.031510
  H     -2.275916    1.754593   -1.491847

 Total Charge           Charge          ....    0
 Multiplicity           Mult            ....    1
 Number of Electrons    NEL             ....  120
 Basis Dimension        Dim             ....  564
Dispersion correction           -0.021892519
FINAL SINGLE POINT ENERGY      -917.523916979142
                             ****ORCA TERMINATED NORMALLY****
TOTAL RUN TIME: 0 days 0 hours 17 minutes 6 seconds 930 msec

ORBITAL ENERGIES
----------------

  NO   OCC          E(Eh)            E(eV)
   0   2.0000     -19.248275      -523.7722
   1   2.0000     -19.247563      -523.7528
   2   2.0000     -19.240521      -523.5612
   3   2.0000     -19.239999      -523.5470
   4   2.0000     -19.235280      -523.4186
   5   2.0000     -19.234726      -523.4035
   6   2.0000     -19.234612      -523.4004
   7   2.0000     -19.233802      -523.3784
   8   2.0000     -19.233771      -523.3775
   9   2.0000     -19.232215      -523.3352
  10   2.0000     -19.227621      -523.2102
  11   2.0000     -19.227416      -523.2046
  12   2.0000      -1.153838       -31.3975
  13   2.0000      -1.143654       -31.1204
  14   2.0000      -1.139092       -30.9963
  15   2.0000      -1.136609       -30.9287
  16   2.0000      -1.132437       -30.8152
  17   2.0000      -1.127799       -30.6890
  18   2.0000      -1.124366       -30.5956
  19   2.0000      -1.118684       -30.4410
  20   2.0000      -1.115204       -30.3462
  21   2.0000      -1.111901       -30.2564
  22   2.0000      -1.108708       -30.1695
  23   2.0000      -1.097466       -29.8636
  24   2.0000      -0.657399       -17.8887
  25   2.0000      -0.655463       -17.8361
  26   2.0000      -0.647270       -17.6131
  27   2.0000      -0.644521       -17.5383
  28   2.0000      -0.638046       -17.3621
  29   2.0000      -0.636130       -17.3100
  30   2.0000      -0.631858       -17.1937
  31   2.0000      -0.624503       -16.9936
  32   2.0000      -0.624012       -16.9802
  33   2.0000      -0.622133       -16.9291
  34   2.0000      -0.620425       -16.8826
  35   2.0000      -0.619270       -16.8512
  36   2.0000      -0.564888       -15.3714
  37   2.0000      -0.546955       -14.8834
  38   2.0000      -0.534677       -14.5493
  39   2.0000      -0.531605       -14.4657
  40   2.0000      -0.519337       -14.1319
  41   2.0000      -0.516823       -14.0635
  42   2.0000      -0.512359       -13.9420
  43   2.0000      -0.507393       -13.8069
  44   2.0000      -0.490931       -13.3589
  45   2.0000      -0.488543       -13.2939
  46   2.0000      -0.479454       -13.0466
  47   2.0000      -0.462503       -12.5853
  48   2.0000      -0.433732       -11.8024
  49   2.0000      -0.432217       -11.7612
  50   2.0000      -0.430601       -11.7173
  51   2.0000      -0.425498       -11.5784
  52   2.0000      -0.425102       -11.5676
  53   2.0000      -0.424188       -11.5428
  54   2.0000      -0.422831       -11.5058
  55   2.0000      -0.420991       -11.4557
  56   2.0000      -0.419370       -11.4116
  57   2.0000      -0.417103       -11.3500
  58   2.0000      -0.412705       -11.2303
  59   2.0000      -0.412151       -11.2152
  60   0.0000       0.062643         1.7046
  61   0.0000       0.082949         2.2572
  62   0.0000       0.093105         2.5335
  63   0.0000       0.093719         2.5502
  64   0.0000       0.111030         3.0213

MULLIKEN ATOMIC CHARGES
-----------------------
   0 O :   -0.865059
   1 H :    0.437647
   2 H :    0.421974
   3 O :   -0.809859
   4 H :    0.435100
   5 H :    0.408479
   6 O :   -0.847504
   7 H :    0.425515
   8 H :    0.414553
   9 O :   -0.854691
  10 H :    0.425457
  11 H :    0.414210
  12 O :   -0.823068
  13 H :    0.426914
  14 H :    0.419078
  15 O :   -0.816532
  16 H :    0.416471
  17 H :    0.408354
  18 O :   -0.917232
  19 H :    0.440433
  20 H :    0.421755
  21 O :   -0.880669
  22 H :    0.426293
  23 H :    0.456059
  24 O :   -0.815504
  25 H :    0.418338
  26 H :    0.426112
  27 O :   -0.814833
  28 H :    0.416147
  29 H :    0.435742
  30 O :   -0.952474
  31 H :    0.418556
  32 H :    0.454795
  33 O :   -0.801872
  34 H :    0.413371
  35 H :    0.417946
Sum of atomic charges:   -0.0000000

LOEWDIN ATOMIC CHARGES
----------------------
   0 O :   -0.411005
   1 H :    0.199375
   2 H :    0.192768
   3 O :   -0.396123
   4 H :    0.199371
   5 H :    0.195272
   6 O :   -0.380969
   7 H :    0.195221
   8 H :    0.214322
   9 O :   -0.380320
  10 H :    0.193114
  11 H :    0.214461
  12 O :   -0.360605
  13 H :    0.203905
  14 H :    0.218885
  15 O :   -0.415416
  16 H :    0.194612
  17 H :    0.192422
  18 O :   -0.418776
  19 H :    0.199253
  20 H :    0.189100
  21 O :   -0.420371
  22 H :    0.192293
  23 H :    0.197740
  24 O :   -0.363289
  25 H :    0.217907
  26 H :    0.204464
  27 O :   -0.401288
  28 H :    0.196464
  29 H :    0.197713
  30 O :   -0.417761
  31 H :    0.189560
  32 H :    0.198336
  33 O :   -0.417900
  34 H :    0.192382
  35 H :    0.194881

  Mayer bond orders larger than 0.1
B(  0-O ,  1-H ) :   0.7984 B(  0-O ,  2-H ) :   0.8057 B(  3-O ,  4-H ) :   0.8255
B(  3-O ,  5-H ) :   0.8244 B(  6-O ,  7-H ) :   0.7835 B(  6-O ,  8-H ) :   0.8351
B(  9-O , 10-H ) :   0.7789 B(  9-O , 11-H ) :   0.8353 B( 12-O , 13-H ) :   0.8175
B( 12-O , 14-H ) :   0.8318 B( 15-O , 16-H ) :   0.8304 B( 15-O , 17-H ) :   0.8270
B( 18-O , 19-H ) :   0.8061 B( 18-O , 20-H ) :   0.7984 B( 21-O , 22-H ) :   0.8027
B( 21-O , 23-H ) :   0.7825 B( 24-O , 25-H ) :   0.8334 B( 24-O , 26-H ) :   0.8189
B( 27-O , 28-H ) :   0.8250 B( 27-O , 29-H ) :   0.8233 B( 30-O , 31-H ) :   0.7983
B( 30-O , 32-H ) :   0.7836 B( 33-O , 34-H ) :   0.8279 B( 33-O , 35-H ) :   0.8295

Dispersion correction           -0.021892519
FINAL SINGLE POINT ENERGY      -917.523916979142

DIPOLE MOMENT
-------------
                                X             Y             Z
Electronic contribution:     -0.01657       0.02086       0.00142
Nuclear contribution   :     -0.00072      -0.03175       0.03354
                        -----------------------------------------
Total Dipole Moment    :     -0.01729      -0.01090       0.03497
                        -----------------------------------------
Magnitude (a.u.)       :      0.04050
Magnitude (Debye)      :      0.10295

                             ****ORCA TERMINATED NORMALLY****
TOTAL RUN TIME: 0 days 0 hours 15 minutes 5 seconds 267 msec
