                         Program Version 3.0.3 - RELEASE   -
|  1> ! wB97X-D3 MA-Def2-TZVP def2-TZVP/J RIJCOSX TightSCF Grid4
|  2>
|  3> %pal nprocs 1 end
|  4>
|  5> %scf
|  6>         maxiter 400
|  7> end
|  8>
|  9> * xyz  0  1
| 10> O  0.572905	-0.014906	-1.819182
| 11> H  -0.259297	0.062980	-2.369573
| 12> H  0.454893	0.735399	-1.143177
| 13> O  -2.793837	-1.453276	-0.849579
| 14> H  -1.952911	-1.906621	-0.573490
| 15> H  -3.010673	-0.863830	-0.074446
| 16> O  2.287835	-2.190180	0.729303
| 17> H  2.670223	-1.533528	0.012509
| 18> H  2.910194	-2.939884	0.755952
| 19> O  -1.968489	0.289736	-2.536082
| 20> H  -2.346987	-0.449617	-1.901956
| 21> H  -2.467002	0.207209	-3.369287
| 22> O  -2.994654	0.427698	1.133319
| 23> H  -2.097501	0.250977	1.582609
| 24> H  -3.657471	0.459013	1.846718
| 25> O  1.854309	-0.261899	2.637561
| 26> H  2.105453	-1.061792	2.098325
| 27> H  2.260751	0.478522	2.114043
| 28> O  -0.212712	-1.922543	-0.152126
| 29> H  0.649025	-2.318194	0.168610
| 30> H  0.104708	-1.253681	-0.849662
| 31> O  -0.565799	-0.124089	1.740914
| 32> H  -0.459291	-0.872801	1.058893
| 33> H  0.315534	-0.162906	2.273107
| 34> O  2.685047	1.605698	0.743828
| 35> H  3.193694	2.423144	0.893317
| 36> H  1.755970	1.898329	0.449583
| 37> O  3.108348	-0.473382	-0.992614
| 38> H  3.124096	0.354548	-0.437557
| 39> H  2.302314	-0.339901	-1.561673
| 40> O  0.209136	1.790010	0.079579
| 41> H  -0.093484	1.106996	0.768268
| 42> H  -0.682031	2.203987	-0.231954
| 43> O  -2.185797	2.341461	-0.714357
| 44> H  -2.638794	1.797705	-0.016317
| 45> H  -2.181573	1.717003	-1.492650
| 46> **                         ****END OF INPUT****

CARTESIAN COORDINATES (ANGSTROEM)
---------------------------------
  O      0.572905   -0.014906   -1.819182
  H     -0.259297    0.062980   -2.369573
  H      0.454893    0.735399   -1.143177
  O     -2.793837   -1.453276   -0.849579
  H     -1.952911   -1.906621   -0.573490
  H     -3.010673   -0.863830   -0.074446
  O      2.287835   -2.190180    0.729303
  H      2.670223   -1.533528    0.012509
  H      2.910194   -2.939884    0.755952
  O     -1.968489    0.289736   -2.536082
  H     -2.346987   -0.449617   -1.901956
  H     -2.467002    0.207209   -3.369287
  O     -2.994654    0.427698    1.133319
  H     -2.097501    0.250977    1.582609
  H     -3.657471    0.459013    1.846718
  O      1.854309   -0.261899    2.637561
  H      2.105453   -1.061792    2.098325
  H      2.260751    0.478522    2.114043
  O     -0.212712   -1.922543   -0.152126
  H      0.649025   -2.318194    0.168610
  H      0.104708   -1.253681   -0.849662
  O     -0.565799   -0.124089    1.740914
  H     -0.459291   -0.872801    1.058893
  H      0.315534   -0.162906    2.273107
  O      2.685047    1.605698    0.743828
  H      3.193694    2.423144    0.893317
  H      1.755970    1.898329    0.449583
  O      3.108348   -0.473382   -0.992614
  H      3.124096    0.354548   -0.437557
  H      2.302314   -0.339901   -1.561673
  O      0.209136    1.790010    0.079579
  H     -0.093484    1.106996    0.768268
  H     -0.682031    2.203987   -0.231954
  O     -2.185797    2.341461   -0.714357
  H     -2.638794    1.797705   -0.016317
  H     -2.181573    1.717003   -1.492650

 Total Charge           Charge          ....    0
 Multiplicity           Mult            ....    1
 Number of Electrons    NEL             ....  120
 Basis Dimension        Dim             ....  564

ORBITAL ENERGIES
----------------

  NO   OCC          E(Eh)            E(eV)
   0   2.0000     -19.261376      -524.1287
   1   2.0000     -19.261035      -524.1194
   2   2.0000     -19.250962      -523.8453
   3   2.0000     -19.250894      -523.8435
   4   2.0000     -19.239220      -523.5258
   5   2.0000     -19.238233      -523.4989
   6   2.0000     -19.238062      -523.4943
   7   2.0000     -19.237429      -523.4771
   8   2.0000     -19.235681      -523.4295
   9   2.0000     -19.234038      -523.3848
  10   2.0000     -19.230054      -523.2764
  11   2.0000     -19.229792      -523.2693
  12   2.0000      -1.160853       -31.5884
  13   2.0000      -1.151580       -31.3361
  14   2.0000      -1.145040       -31.1581
  15   2.0000      -1.142510       -31.0893
  16   2.0000      -1.134055       -30.8592
  17   2.0000      -1.129456       -30.7341
  18   2.0000      -1.125197       -30.6182
  19   2.0000      -1.118228       -30.4285
  20   2.0000      -1.113647       -30.3039
  21   2.0000      -1.108789       -30.1717
  22   2.0000      -1.105532       -30.0831
  23   2.0000      -1.089228       -29.6394
  24   2.0000      -0.672725       -18.3058
  25   2.0000      -0.669671       -18.2227
  26   2.0000      -0.654158       -17.8005
  27   2.0000      -0.652929       -17.7671
  28   2.0000      -0.644358       -17.5339
  29   2.0000      -0.641474       -17.4554
  30   2.0000      -0.633589       -17.2408
  31   2.0000      -0.624810       -17.0019
  32   2.0000      -0.624225       -16.9860
  33   2.0000      -0.621285       -16.9060
  34   2.0000      -0.619263       -16.8510
  35   2.0000      -0.618426       -16.8282
  36   2.0000      -0.578639       -15.7456
  37   2.0000      -0.558462       -15.1965
  38   2.0000      -0.543825       -14.7982
  39   2.0000      -0.538499       -14.6533
  40   2.0000      -0.522517       -14.2184
  41   2.0000      -0.519426       -14.1343
  42   2.0000      -0.516811       -14.0631
  43   2.0000      -0.510483       -13.8910
  44   2.0000      -0.495021       -13.4702
  45   2.0000      -0.491206       -13.3664
  46   2.0000      -0.482933       -13.1413
  47   2.0000      -0.459967       -12.5163
  48   2.0000      -0.442193       -12.0327
  49   2.0000      -0.440831       -11.9956
  50   2.0000      -0.433893       -11.8068
  51   2.0000      -0.429502       -11.6873
  52   2.0000      -0.424722       -11.5573
  53   2.0000      -0.424263       -11.5448
  54   2.0000      -0.423032       -11.5113
  55   2.0000      -0.420460       -11.4413
  56   2.0000      -0.417249       -11.3539
  57   2.0000      -0.415670       -11.3110
  58   2.0000      -0.406670       -11.0660
  59   2.0000      -0.406450       -11.0601
  60   0.0000       0.052239         1.4215
  61   0.0000       0.067257         1.8302
  62   0.0000       0.074766         2.0345
  63   0.0000       0.075571         2.0564
  64   0.0000       0.109121         2.9693

MULLIKEN ATOMIC CHARGES
-----------------------
   0 O :   -0.866497
   1 H :    0.428202
   2 H :    0.418230
   3 O :   -0.742935
   4 H :    0.431566
   5 H :    0.401000
   6 O :   -0.852953
   7 H :    0.416334
   8 H :    0.361467
   9 O :   -0.857848
  10 H :    0.418061
  11 H :    0.361555
  12 O :   -0.825019
  13 H :    0.427024
  14 H :    0.363709
  15 O :   -0.735628
  16 H :    0.409262
  17 H :    0.399071
  18 O :   -0.860764
  19 H :    0.430674
  20 H :    0.412400
  21 O :   -0.928813
  22 H :    0.424471
  23 H :    0.474637
  24 O :   -0.819993
  25 H :    0.363493
  26 H :    0.429265
  27 O :   -0.743108
  28 H :    0.407842
  29 H :    0.434681
  30 O :   -0.952241
  31 H :    0.401883
  32 H :    0.480315
  33 O :   -0.724314
  34 H :    0.402794
  35 H :    0.412178
Sum of atomic charges:   -0.0000000

LOEWDIN ATOMIC CHARGES
----------------------
   0 O :   -0.418845
   1 H :    0.202819
   2 H :    0.193278
   3 O :   -0.354621
   4 H :    0.206943
   5 H :    0.199535
   6 O :   -0.418783
   7 H :    0.194128
   8 H :    0.195314
   9 O :   -0.418317
  10 H :    0.193981
  11 H :    0.195178
  12 O :   -0.397782
  13 H :    0.200411
  14 H :    0.197943
  15 O :   -0.371463
  16 H :    0.199245
  17 H :    0.198783
  18 O :   -0.416918
  19 H :    0.203027
  20 H :    0.194600
  21 O :   -0.423933
  22 H :    0.191482
  23 H :    0.202693
  24 O :   -0.397417
  25 H :    0.197968
  26 H :    0.201030
  27 O :   -0.356424
  28 H :    0.200774
  29 H :    0.206770
  30 O :   -0.423308
  31 H :    0.191248
  32 H :    0.203794
  33 O :   -0.371768
  34 H :    0.199671
  35 H :    0.198963

  Mayer bond orders larger than 0.1
B(  0-O ,  1-H ) :   0.8062 B(  0-O ,  2-H ) :   0.7818 B(  0-O , 20-H ) :   0.1008
B(  3-O ,  4-H ) :   0.8280 B(  3-O ,  5-H ) :   0.8376 B(  3-O , 10-H ) :   0.1591
B(  6-O ,  7-H ) :   0.7168 B(  6-O ,  8-H ) :   0.8720 B(  7-H , 27-O ) :   0.1573
B(  9-O , 10-H ) :   0.7152 B(  9-O , 11-H ) :   0.8713 B( 12-O , 13-H ) :   0.7712
B( 12-O , 14-H ) :   0.8705 B( 15-O , 16-H ) :   0.8487 B( 15-O , 17-H ) :   0.8582
B( 18-O , 19-H ) :   0.8090 B( 18-O , 20-H ) :   0.7834 B( 18-O , 22-H ) :   0.1122
B( 21-O , 22-H ) :   0.7679 B( 21-O , 23-H ) :   0.7243 B( 21-O , 31-H ) :   0.1196
B( 24-O , 25-H ) :   0.8710 B( 24-O , 26-H ) :   0.7758 B( 27-O , 28-H ) :   0.8401
B( 27-O , 29-H ) :   0.8240 B( 30-O , 31-H ) :   0.7753 B( 30-O , 32-H ) :   0.7264
B( 33-O , 34-H ) :   0.8580 B( 33-O , 35-H ) :   0.8465

Dispersion correction           -0.022836567
FINAL SINGLE POINT ENERGY      -917.469141634061

DIPOLE MOMENT
-------------
                                X             Y             Z
Electronic contribution:     -0.00521       0.02943       0.01614
Nuclear contribution   :      0.00604      -0.02963      -0.00078
                        -----------------------------------------
Total Dipole Moment    :      0.00083      -0.00021       0.01536
                        -----------------------------------------
Magnitude (a.u.)       :      0.01538
Magnitude (Debye)      :      0.03910

                             ****ORCA TERMINATED NORMALLY****
TOTAL RUN TIME: 0 days 0 hours 15 minutes 4 seconds 838 msec
