                         Program Version 3.0.3 - RELEASE   -
|  1> ! B3LYP Def2-TZVP def2-TZVP/J RIJCOSX TightSCF Grid4 D3BJ COSMO
|  2>
|  3> %pal nprocs 12 end
|  4>
|  5> %scf
|  6>         maxiter 400
|  7> end
|  8>
|  9> %cosmo
| 10>         SMD true
| 11>         solvent "WATER"
| 12> end
| 13>
| 14> * xyz  0  1
| 15> O  0.560969	0.016522	-1.821165
| 16> H  -0.293901	0.072698	-2.346489
| 17> H  0.434482	0.761357	-1.140638
| 18> O  -2.816463	-1.497201	-0.824389
| 19> H  -1.942651	-1.891255	-0.563745
| 20> H  -3.008791	-0.859859	-0.074929
| 21> O  2.276781	-2.173179	0.754701
| 22> H  2.674731	-1.557912	0.033255
| 23> H  2.854834	-2.961238	0.772912
| 24> O  -1.972138	0.304066	-2.520771
| 25> H  -2.360352	-0.441465	-1.929121
| 26> H  -2.442187	0.234503	-3.374804
| 27> O  -2.993346	0.428223	1.075617
| 28> H  -2.135120	0.262462	1.572335
| 29> H  -3.695112	0.450945	1.755577
| 30> O  1.934542	-0.260329	2.655277
| 31> H  2.149506	-1.064127	2.098906
| 32> H  2.301368	0.479096	2.091107
| 33> O  -0.195198	-1.914631	-0.155372
| 34> H  0.682222	-2.274917	0.181040
| 35> H  0.107421	-1.234627	-0.845950
| 36> O  -0.523640	-0.124726	1.772548
| 37> H  -0.430052	-0.862472	1.080516
| 38> H  0.372304	-0.159999	2.266990
| 39> O  2.698284	1.550741	0.754216
| 40> H  3.257447	2.338682	0.902271
| 41> H  1.803930	1.902276	0.463072
| 42> O  3.121901	-0.453634	-1.025116
| 43> H  3.117166	0.349775	-0.427496
| 44> H  2.285409	-0.329098	-1.549131
| 45> O  0.165901	1.817178	0.085581
| 46> H  -0.104009	1.133304	0.785049
| 47> H  -0.733984	2.185015	-0.232146
| 48> O  -2.266189	2.331762	-0.736868
| 49> H  -2.666634	1.757057	-0.024211
| 50> H  -2.223299	1.692394	-1.507873
| 51> **                         ****END OF INPUT****

CARTESIAN COORDINATES (ANGSTROEM)
---------------------------------
  O      0.560969    0.016522   -1.821165
  H     -0.293901    0.072698   -2.346489
  H      0.434482    0.761357   -1.140638
  O     -2.816463   -1.497201   -0.824389
  H     -1.942651   -1.891255   -0.563745
  H     -3.008791   -0.859859   -0.074929
  O      2.276781   -2.173179    0.754701
  H      2.674731   -1.557912    0.033255
  H      2.854834   -2.961238    0.772912
  O     -1.972138    0.304066   -2.520771
  H     -2.360352   -0.441465   -1.929121
  H     -2.442187    0.234503   -3.374804
  O     -2.993346    0.428223    1.075617
  H     -2.135120    0.262462    1.572335
  H     -3.695112    0.450945    1.755577
  O      1.934542   -0.260329    2.655277
  H      2.149506   -1.064127    2.098906
  H      2.301368    0.479096    2.091107
  O     -0.195198   -1.914631   -0.155372
  H      0.682222   -2.274917    0.181040
  H      0.107421   -1.234627   -0.845950
  O     -0.523640   -0.124726    1.772548
  H     -0.430052   -0.862472    1.080516
  H      0.372304   -0.159999    2.266990
  O      2.698284    1.550741    0.754216
  H      3.257447    2.338682    0.902271
  H      1.803930    1.902276    0.463072
  O      3.121901   -0.453634   -1.025116
  H      3.117166    0.349775   -0.427496
  H      2.285409   -0.329098   -1.549131
  O      0.165901    1.817178    0.085581
  H     -0.104009    1.133304    0.785049
  H     -0.733984    2.185015   -0.232146
  O     -2.266189    2.331762   -0.736868
  H     -2.666634    1.757057   -0.024211
  H     -2.223299    1.692394   -1.507873

 Total Charge           Charge          ....    0
 Multiplicity           Mult            ....    1
 Number of Electrons    NEL             ....  120
 Basis Dimension        Dim             ....  516

ORBITAL ENERGIES
----------------

  NO   OCC          E(Eh)            E(eV)
   0   2.0000     -19.138958      -520.7975
   1   2.0000     -19.138582      -520.7873
   2   2.0000     -19.131425      -520.5925
   3   2.0000     -19.131371      -520.5911
   4   2.0000     -19.124177      -520.3953
   5   2.0000     -19.124019      -520.3910
   6   2.0000     -19.122486      -520.3493
   7   2.0000     -19.122389      -520.3466
   8   2.0000     -19.121282      -520.3165
   9   2.0000     -19.120138      -520.2854
  10   2.0000     -19.119473      -520.2673
  11   2.0000     -19.118809      -520.2492
  12   2.0000      -1.034693       -28.1554
  13   2.0000      -1.024240       -27.8710
  14   2.0000      -1.017674       -27.6923
  15   2.0000      -1.016169       -27.6514
  16   2.0000      -1.010021       -27.4841
  17   2.0000      -1.006283       -27.3823
  18   2.0000      -1.002637       -27.2831
  19   2.0000      -0.995724       -27.0950
  20   2.0000      -0.990899       -26.9637
  21   2.0000      -0.987355       -26.8673
  22   2.0000      -0.984657       -26.7939
  23   2.0000      -0.968532       -26.3551
  24   2.0000      -0.551040       -14.9946
  25   2.0000      -0.548428       -14.9235
  26   2.0000      -0.538293       -14.6477
  27   2.0000      -0.536233       -14.5917
  28   2.0000      -0.529199       -14.4002
  29   2.0000      -0.526920       -14.3382
  30   2.0000      -0.521699       -14.1962
  31   2.0000      -0.515972       -14.0403
  32   2.0000      -0.513440       -13.9714
  33   2.0000      -0.511319       -13.9137
  34   2.0000      -0.508517       -13.8374
  35   2.0000      -0.508066       -13.8252
  36   2.0000      -0.463902       -12.6234
  37   2.0000      -0.446006       -12.1364
  38   2.0000      -0.432085       -11.7576
  39   2.0000      -0.428056       -11.6480
  40   2.0000      -0.415816       -11.3149
  41   2.0000      -0.413453       -11.2506
  42   2.0000      -0.410839       -11.1795
  43   2.0000      -0.403527       -10.9805
  44   2.0000      -0.388917       -10.5830
  45   2.0000      -0.385113       -10.4794
  46   2.0000      -0.377235       -10.2651
  47   2.0000      -0.359410        -9.7800
  48   2.0000      -0.331562        -9.0223
  49   2.0000      -0.330459        -8.9922
  50   2.0000      -0.327068        -8.9000
  51   2.0000      -0.322541        -8.7768
  52   2.0000      -0.321802        -8.7567
  53   2.0000      -0.319986        -8.7072
  54   2.0000      -0.319698        -8.6994
  55   2.0000      -0.318913        -8.6781
  56   2.0000      -0.315234        -8.5780
  57   2.0000      -0.313917        -8.5421
  58   2.0000      -0.309937        -8.4338
  59   2.0000      -0.309700        -8.4274
  60   0.0000       0.015455         0.4205
  61   0.0000       0.040220         1.0944
  62   0.0000       0.057387         1.5616
  63   0.0000       0.057925         1.5762
  64   0.0000       0.095979         2.6117

MULLIKEN ATOMIC CHARGES
-----------------------
   0 O :   -0.779835
   1 H :    0.385110
   2 H :    0.370515
   3 O :   -0.744965
   4 H :    0.388285
   5 H :    0.375939
   6 O :   -0.754664
   7 H :    0.375644
   8 H :    0.386189
   9 O :   -0.754301
  10 H :    0.375291
  11 H :    0.386256
  12 O :   -0.737399
  13 H :    0.395500
  14 H :    0.391142
  15 O :   -0.757463
  16 H :    0.373285
  17 H :    0.371039
  18 O :   -0.778933
  19 H :    0.384418
  20 H :    0.361779
  21 O :   -0.800305
  22 H :    0.369784
  23 H :    0.397994
  24 O :   -0.735461
  25 H :    0.390888
  26 H :    0.394328
  27 O :   -0.743937
  28 H :    0.376271
  29 H :    0.389651
  30 O :   -0.795433
  31 H :    0.360215
  32 H :    0.397151
  33 O :   -0.759288
  34 H :    0.372556
  35 H :    0.372755
Sum of atomic charges:   -0.0000000

LOEWDIN ATOMIC CHARGES
----------------------
   0 O :   -0.322387
   1 H :    0.150229
   2 H :    0.138855
   3 O :   -0.315026
   4 H :    0.154240
   5 H :    0.149038
   6 O :   -0.293059
   7 H :    0.149523
   8 H :    0.186947
   9 O :   -0.291696
  10 H :    0.149386
  11 H :    0.186902
  12 O :   -0.271982
  13 H :    0.157013
  14 H :    0.193048
  15 O :   -0.330684
  16 H :    0.148060
  17 H :    0.148197
  18 O :   -0.323220
  19 H :    0.149334
  20 H :    0.138695
  21 O :   -0.326467
  22 H :    0.136843
  23 H :    0.146723
  24 O :   -0.272396
  25 H :    0.193295
  26 H :    0.158255
  27 O :   -0.315484
  28 H :    0.150031
  29 H :    0.154148
  30 O :   -0.322020
  31 H :    0.137611
  32 H :    0.147609
  33 O :   -0.334300
  34 H :    0.147795
  35 H :    0.146943

  Mayer bond orders larger than 0.1
B(  0-O ,  1-H ) :   0.7778 B(  0-O ,  2-H ) :   0.7479 B(  0-O , 20-H ) :   0.1611
B(  1-H ,  9-O ) :   0.1227 B(  2-H , 30-O ) :   0.1585 B(  3-O ,  4-H ) :   0.8134
B(  3-O ,  5-H ) :   0.7905 B(  3-O , 10-H ) :   0.1751 B(  5-H , 12-O ) :   0.1185
B(  6-O ,  7-H ) :   0.7289 B(  6-O ,  8-H ) :   0.8502 B(  6-O , 16-H ) :   0.1109
B(  6-O , 19-H ) :   0.1263 B(  7-H , 27-O ) :   0.1755 B(  9-O , 10-H ) :   0.7297
B(  9-O , 11-H ) :   0.8501 B(  9-O , 35-H ) :   0.1165 B( 12-O , 13-H ) :   0.7772
B( 12-O , 14-H ) :   0.8470 B( 12-O , 34-H ) :   0.1033 B( 15-O , 16-H ) :   0.7986
B( 15-O , 17-H ) :   0.8021 B( 15-O , 23-H ) :   0.1653 B( 17-H , 24-O ) :   0.1081
B( 18-O , 19-H ) :   0.7756 B( 18-O , 20-H ) :   0.7515 B( 18-O , 22-H ) :   0.1591
B( 21-O , 22-H ) :   0.7470 B( 21-O , 23-H ) :   0.7361 B( 21-O , 31-H ) :   0.1616
B( 24-O , 25-H ) :   0.8473 B( 24-O , 26-H ) :   0.7802 B( 24-O , 28-H ) :   0.1112
B( 27-O , 28-H ) :   0.7955 B( 27-O , 29-H ) :   0.8103 B( 30-O , 31-H ) :   0.7507
B( 30-O , 32-H ) :   0.7368 B( 32-H , 33-O ) :   0.1654 B( 33-O , 34-H ) :   0.8047
B( 33-O , 35-H ) :   0.7954

Dispersion correction           -0.044634287
FINAL SINGLE POINT ENERGY      -917.376610482718

DIPOLE MOMENT
-------------
                                X             Y             Z
Electronic contribution:      0.01307       0.04376       0.02763
Nuclear contribution   :      0.01825      -0.05576      -0.03498
                        -----------------------------------------
Total Dipole Moment    :      0.03132      -0.01200      -0.00735
                        -----------------------------------------
Magnitude (a.u.)       :      0.03433
Magnitude (Debye)      :      0.08727

                             ****ORCA TERMINATED NORMALLY****
TOTAL RUN TIME: 0 days 0 hours 1 minutes 31 seconds 388 msec
