                         Program Version 3.0.3 - RELEASE   -
|  1> ! wB97X-D3 MA-Def2-TZVP def2-TZVP/J RIJCOSX TightSCF Grid4
|  2>
|  3> %pal nprocs 1 end
|  4>
|  5> %scf
|  6>         maxiter 400
|  7> end
|  8>
|  9> * xyz  0  1
| 10> O  0.555783	0.002361	-1.853259
| 11> H  -0.261039	0.096739	-2.394431
| 12> H  0.463634	0.720148	-1.173534
| 13> O  -2.830278	-1.527679	-0.873606
| 14> H  -1.998713	-1.964864	-0.592676
| 15> H  -3.067564	-0.940577	-0.123794
| 16> O  2.351748	-2.213003	0.720253
| 17> H  2.716348	-1.588448	0.013173
| 18> H  2.974851	-2.949414	0.775272
| 19> O  -2.049100	0.281403	-2.575290
| 20> H  -2.400738	-0.454010	-1.974903
| 21> H  -2.529277	0.201164	-3.410157
| 22> O  -3.075479	0.411367	1.123509
| 23> H  -2.222402	0.249569	1.609697
| 24> H  -3.769761	0.458936	1.793697
| 25> O  1.894978	-0.211760	2.640001
| 26> H  2.138879	-1.014595	2.130608
| 27> H  2.326096	0.506499	2.132394
| 28> O  -0.209353	-1.942148	-0.152911
| 29> H  0.628878	-2.347419	0.164550
| 30> H  0.092724	-1.293768	-0.842372
| 31> O  -0.617534	-0.134611	1.828833
| 32> H  -0.502380	-0.853982	1.153163
| 33> H  0.239281	-0.150236	2.345785
| 34> O  2.791685	1.635420	0.739541
| 35> H  3.304455	2.438071	0.900147
| 36> H  1.872268	1.927836	0.490766
| 37> O  3.127812	-0.466615	-1.056421
| 38> H  3.177563	0.342990	-0.503762
| 39> H  2.333277	-0.330450	-1.613652
| 40> O  0.244381	1.809661	0.157417
| 41> H  -0.074401	1.144869	0.821379
| 42> H  -0.607124	2.226476	-0.170810
| 43> O  -2.172614	2.349773	-0.701753
| 44> H  -2.658045	1.821889	-0.034326
| 45> H  -2.192705	1.765796	-1.491771
| 46> **                         ****END OF INPUT****

CARTESIAN COORDINATES (ANGSTROEM)
---------------------------------
  O      0.555783    0.002361   -1.853259
  H     -0.261039    0.096739   -2.394431
  H      0.463634    0.720148   -1.173534
  O     -2.830278   -1.527679   -0.873606
  H     -1.998713   -1.964864   -0.592676
  H     -3.067564   -0.940577   -0.123794
  O      2.351748   -2.213003    0.720253
  H      2.716348   -1.588448    0.013173
  H      2.974851   -2.949414    0.775272
  O     -2.049100    0.281403   -2.575290
  H     -2.400738   -0.454010   -1.974903
  H     -2.529277    0.201164   -3.410157
  O     -3.075479    0.411367    1.123509
  H     -2.222402    0.249569    1.609697
  H     -3.769761    0.458936    1.793697
  O      1.894978   -0.211760    2.640001
  H      2.138879   -1.014595    2.130608
  H      2.326096    0.506499    2.132394
  O     -0.209353   -1.942148   -0.152911
  H      0.628878   -2.347419    0.164550
  H      0.092724   -1.293768   -0.842372
  O     -0.617534   -0.134611    1.828833
  H     -0.502380   -0.853982    1.153163
  H      0.239281   -0.150236    2.345785
  O      2.791685    1.635420    0.739541
  H      3.304455    2.438071    0.900147
  H      1.872268    1.927836    0.490766
  O      3.127812   -0.466615   -1.056421
  H      3.177563    0.342990   -0.503762
  H      2.333277   -0.330450   -1.613652
  O      0.244381    1.809661    0.157417
  H     -0.074401    1.144869    0.821379
  H     -0.607124    2.226476   -0.170810
  O     -2.172614    2.349773   -0.701753
  H     -2.658045    1.821889   -0.034326
  H     -2.192705    1.765796   -1.491771

 Total Charge           Charge          ....    0
 Multiplicity           Mult            ....    1
 Number of Electrons    NEL             ....  120
 Basis Dimension        Dim             ....  564

ORBITAL ENERGIES
----------------

  NO   OCC          E(Eh)            E(eV)
   0   2.0000     -19.261296      -524.1265
   1   2.0000     -19.259820      -524.0863
   2   2.0000     -19.250935      -523.8446
   3   2.0000     -19.249288      -523.7997
   4   2.0000     -19.239990      -523.5467
   5   2.0000     -19.237303      -523.4736
   6   2.0000     -19.236528      -523.4525
   7   2.0000     -19.236092      -523.4407
   8   2.0000     -19.235186      -523.4160
   9   2.0000     -19.233135      -523.3602
  10   2.0000     -19.227539      -523.2079
  11   2.0000     -19.225702      -523.1579
  12   2.0000      -1.161230       -31.5987
  13   2.0000      -1.154125       -31.4053
  14   2.0000      -1.148618       -31.2555
  15   2.0000      -1.145029       -31.1578
  16   2.0000      -1.138070       -30.9684
  17   2.0000      -1.132268       -30.8106
  18   2.0000      -1.129695       -30.7406
  19   2.0000      -1.122584       -30.5471
  20   2.0000      -1.117972       -30.4216
  21   2.0000      -1.114349       -30.3230
  22   2.0000      -1.111146       -30.2358
  23   2.0000      -1.100241       -29.9391
  24   2.0000      -0.673882       -18.3373
  25   2.0000      -0.671606       -18.2753
  26   2.0000      -0.656672       -17.8690
  27   2.0000      -0.655222       -17.8295
  28   2.0000      -0.647524       -17.6200
  29   2.0000      -0.645182       -17.5563
  30   2.0000      -0.637243       -17.3403
  31   2.0000      -0.628751       -17.1092
  32   2.0000      -0.626923       -17.0594
  33   2.0000      -0.625569       -17.0226
  34   2.0000      -0.624707       -16.9992
  35   2.0000      -0.623872       -16.9764
  36   2.0000      -0.570500       -15.5241
  37   2.0000      -0.552543       -15.0355
  38   2.0000      -0.541253       -14.7282
  39   2.0000      -0.536122       -14.5886
  40   2.0000      -0.520518       -14.1640
  41   2.0000      -0.517895       -14.0926
  42   2.0000      -0.514194       -13.9919
  43   2.0000      -0.510588       -13.8938
  44   2.0000      -0.494380       -13.4528
  45   2.0000      -0.490727       -13.3534
  46   2.0000      -0.481814       -13.1108
  47   2.0000      -0.461433       -12.5562
  48   2.0000      -0.444001       -12.0819
  49   2.0000      -0.441746       -12.0205
  50   2.0000      -0.436765       -11.8850
  51   2.0000      -0.431476       -11.7411
  52   2.0000      -0.427681       -11.6378
  53   2.0000      -0.427511       -11.6332
  54   2.0000      -0.426821       -11.6144
  55   2.0000      -0.420700       -11.4478
  56   2.0000      -0.420076       -11.4308
  57   2.0000      -0.417258       -11.3542
  58   2.0000      -0.408291       -11.1102
  59   2.0000      -0.406779       -11.0690
  60   0.0000       0.052135         1.4187
  61   0.0000       0.067287         1.8310
  62   0.0000       0.075067         2.0427
  63   0.0000       0.075643         2.0584
  64   0.0000       0.108803         2.9607

MULLIKEN ATOMIC CHARGES
-----------------------
   0 O :   -0.820234
   1 H :    0.418875
   2 H :    0.395921
   3 O :   -0.734474
   4 H :    0.420120
   5 H :    0.388933
   6 O :   -0.831132
   7 H :    0.413263
   8 H :    0.358046
   9 O :   -0.843850
  10 H :    0.414097
  11 H :    0.359753
  12 O :   -0.807354
  13 H :    0.416196
  14 H :    0.361079
  15 O :   -0.736578
  16 H :    0.395208
  17 H :    0.388818
  18 O :   -0.859502
  19 H :    0.418371
  20 H :    0.409507
  21 O :   -0.859005
  22 H :    0.410174
  23 H :    0.459953
  24 O :   -0.798631
  25 H :    0.361074
  26 H :    0.419412
  27 O :   -0.746946
  28 H :    0.400006
  29 H :    0.423948
  30 O :   -0.921154
  31 H :    0.390927
  32 H :    0.464456
  33 O :   -0.721910
  34 H :    0.388980
  35 H :    0.403653
Sum of atomic charges:    0.0000000

LOEWDIN ATOMIC CHARGES
----------------------
   0 O :   -0.398798
   1 H :    0.197325
   2 H :    0.189551
   3 O :   -0.353884
   4 H :    0.199485
   5 H :    0.192104
   6 O :   -0.400434
   7 H :    0.188274
   8 H :    0.190274
   9 O :   -0.399914
  10 H :    0.188185
  11 H :    0.190953
  12 O :   -0.381261
  13 H :    0.196418
  14 H :    0.193092
  15 O :   -0.373101
  16 H :    0.192912
  17 H :    0.190222
  18 O :   -0.403952
  19 H :    0.197238
  20 H :    0.187868
  21 O :   -0.404295
  22 H :    0.189051
  23 H :    0.198415
  24 O :   -0.381661
  25 H :    0.192661
  26 H :    0.196388
  27 O :   -0.355934
  28 H :    0.193623
  29 H :    0.197765
  30 O :   -0.408386
  31 H :    0.186039
  32 H :    0.196464
  33 O :   -0.367909
  34 H :    0.192163
  35 H :    0.193060

  Mayer bond orders larger than 0.1
B(  0-O ,  1-H ) :   0.8261 B(  0-O ,  2-H ) :   0.8157 B(  3-O ,  4-H ) :   0.8415
B(  3-O ,  5-H ) :   0.8571 B(  3-O , 10-H ) :   0.1144 B(  6-O ,  7-H ) :   0.7573
B(  6-O ,  8-H ) :   0.8765 B(  7-H , 27-O ) :   0.1074 B(  9-O , 10-H ) :   0.7522
B(  9-O , 11-H ) :   0.8745 B( 12-O , 13-H ) :   0.8006 B( 12-O , 14-H ) :   0.8746
B( 15-O , 16-H ) :   0.8671 B( 15-O , 17-H ) :   0.8671 B( 18-O , 19-H ) :   0.8316
B( 18-O , 20-H ) :   0.8123 B( 21-O , 22-H ) :   0.8077 B( 21-O , 23-H ) :   0.7737
B( 24-O , 25-H ) :   0.8754 B( 24-O , 26-H ) :   0.7997 B( 27-O , 28-H ) :   0.8551
B( 27-O , 29-H ) :   0.8392 B( 30-O , 31-H ) :   0.8045 B( 30-O , 32-H ) :   0.7705
B( 33-O , 34-H ) :   0.8723 B( 33-O , 35-H ) :   0.8640

Dispersion correction           -0.021983962
FINAL SINGLE POINT ENERGY      -917.486391859668

DIPOLE MOMENT
-------------
                                X             Y             Z
Electronic contribution:     -0.02554       0.02850      -0.00693
Nuclear contribution   :     -0.03326       0.02071       0.00983
                        -----------------------------------------
Total Dipole Moment    :     -0.05879       0.04921       0.00290
                        -----------------------------------------
Magnitude (a.u.)       :      0.07672
Magnitude (Debye)      :      0.19502

                             ****ORCA TERMINATED NORMALLY****
TOTAL RUN TIME: 0 days 0 hours 15 minutes 25 seconds 590 msec
