                         Program Version 3.0.3 - RELEASE   -
|  1> ! B3LYP Def2-TZVP def2-TZVP/J RIJCOSX TightSCF Grid4 D3BJ
|  2>
|  3> %pal nprocs 12 end
|  4>
|  5> %scf
|  6>         maxiter 400
|  7> end
|  8>
|  9> * xyz  0  1
| 10> O  0.572905	-0.014906	-1.819182
| 11> H  -0.259297	0.062980	-2.369573
| 12> H  0.454893	0.735399	-1.143177
| 13> O  -2.793837	-1.453276	-0.849579
| 14> H  -1.952911	-1.906621	-0.573490
| 15> H  -3.010673	-0.863830	-0.074446
| 16> O  2.287835	-2.190180	0.729303
| 17> H  2.670223	-1.533528	0.012509
| 18> H  2.910194	-2.939884	0.755952
| 19> O  -1.968489	0.289736	-2.536082
| 20> H  -2.346987	-0.449617	-1.901956
| 21> H  -2.467002	0.207209	-3.369287
| 22> O  -2.994654	0.427698	1.133319
| 23> H  -2.097501	0.250977	1.582609
| 24> H  -3.657471	0.459013	1.846718
| 25> O  1.854309	-0.261899	2.637561
| 26> H  2.105453	-1.061792	2.098325
| 27> H  2.260751	0.478522	2.114043
| 28> O  -0.212712	-1.922543	-0.152126
| 29> H  0.649025	-2.318194	0.168610
| 30> H  0.104708	-1.253681	-0.849662
| 31> O  -0.565799	-0.124089	1.740914
| 32> H  -0.459291	-0.872801	1.058893
| 33> H  0.315534	-0.162906	2.273107
| 34> O  2.685047	1.605698	0.743828
| 35> H  3.193694	2.423144	0.893317
| 36> H  1.755970	1.898329	0.449583
| 37> O  3.108348	-0.473382	-0.992614
| 38> H  3.124096	0.354548	-0.437557
| 39> H  2.302314	-0.339901	-1.561673
| 40> O  0.209136	1.790010	0.079579
| 41> H  -0.093484	1.106996	0.768268
| 42> H  -0.682031	2.203987	-0.231954
| 43> O  -2.185797	2.341461	-0.714357
| 44> H  -2.638794	1.797705	-0.016317
| 45> H  -2.181573	1.717003	-1.492650
| 46> **                         ****END OF INPUT****

CARTESIAN COORDINATES (ANGSTROEM)
---------------------------------
  O      0.572905   -0.014906   -1.819182
  H     -0.259297    0.062980   -2.369573
  H      0.454893    0.735399   -1.143177
  O     -2.793837   -1.453276   -0.849579
  H     -1.952911   -1.906621   -0.573490
  H     -3.010673   -0.863830   -0.074446
  O      2.287835   -2.190180    0.729303
  H      2.670223   -1.533528    0.012509
  H      2.910194   -2.939884    0.755952
  O     -1.968489    0.289736   -2.536082
  H     -2.346987   -0.449617   -1.901956
  H     -2.467002    0.207209   -3.369287
  O     -2.994654    0.427698    1.133319
  H     -2.097501    0.250977    1.582609
  H     -3.657471    0.459013    1.846718
  O      1.854309   -0.261899    2.637561
  H      2.105453   -1.061792    2.098325
  H      2.260751    0.478522    2.114043
  O     -0.212712   -1.922543   -0.152126
  H      0.649025   -2.318194    0.168610
  H      0.104708   -1.253681   -0.849662
  O     -0.565799   -0.124089    1.740914
  H     -0.459291   -0.872801    1.058893
  H      0.315534   -0.162906    2.273107
  O      2.685047    1.605698    0.743828
  H      3.193694    2.423144    0.893317
  H      1.755970    1.898329    0.449583
  O      3.108348   -0.473382   -0.992614
  H      3.124096    0.354548   -0.437557
  H      2.302314   -0.339901   -1.561673
  O      0.209136    1.790010    0.079579
  H     -0.093484    1.106996    0.768268
  H     -0.682031    2.203987   -0.231954
  O     -2.185797    2.341461   -0.714357
  H     -2.638794    1.797705   -0.016317
  H     -2.181573    1.717003   -1.492650

 Total Charge           Charge          ....    0
 Multiplicity           Mult            ....    1
 Number of Electrons    NEL             ....  120
 Basis Dimension        Dim             ....  516

ORBITAL ENERGIES
----------------

  NO   OCC          E(Eh)            E(eV)
   0   2.0000     -19.150951      -521.1239
   1   2.0000     -19.150628      -521.1151
   2   2.0000     -19.140539      -520.8405
   3   2.0000     -19.140482      -520.8390
   4   2.0000     -19.128648      -520.5170
   5   2.0000     -19.127731      -520.4920
   6   2.0000     -19.127342      -520.4814
   7   2.0000     -19.126689      -520.4637
   8   2.0000     -19.125016      -520.4181
   9   2.0000     -19.123503      -520.3770
  10   2.0000     -19.119266      -520.2617
  11   2.0000     -19.119110      -520.2574
  12   2.0000      -1.042120       -28.3575
  13   2.0000      -1.033608       -28.1259
  14   2.0000      -1.027081       -27.9483
  15   2.0000      -1.024553       -27.8795
  16   2.0000      -1.016149       -27.6508
  17   2.0000      -1.011483       -27.5238
  18   2.0000      -1.007342       -27.4112
  19   2.0000      -1.000500       -27.2250
  20   2.0000      -0.996262       -27.1097
  21   2.0000      -0.991355       -26.9761
  22   2.0000      -0.988026       -26.8856
  23   2.0000      -0.972014       -26.4499
  24   2.0000      -0.565856       -15.3977
  25   2.0000      -0.563465       -15.3327
  26   2.0000      -0.547714       -14.9041
  27   2.0000      -0.547158       -14.8889
  28   2.0000      -0.538374       -14.6499
  29   2.0000      -0.535244       -14.5647
  30   2.0000      -0.526713       -14.3326
  31   2.0000      -0.518979       -14.1221
  32   2.0000      -0.518376       -14.1057
  33   2.0000      -0.515874       -14.0376
  34   2.0000      -0.514056       -13.9882
  35   2.0000      -0.513249       -13.9662
  36   2.0000      -0.471463       -12.8292
  37   2.0000      -0.452615       -12.3163
  38   2.0000      -0.439390       -11.9564
  39   2.0000      -0.433925       -11.8077
  40   2.0000      -0.417840       -11.3700
  41   2.0000      -0.414983       -11.2923
  42   2.0000      -0.412704       -11.2302
  43   2.0000      -0.407501       -11.0887
  44   2.0000      -0.392707       -10.6861
  45   2.0000      -0.388535       -10.5726
  46   2.0000      -0.380745       -10.3606
  47   2.0000      -0.359213        -9.7747
  48   2.0000      -0.341441        -9.2911
  49   2.0000      -0.340054        -9.2533
  50   2.0000      -0.333325        -9.0702
  51   2.0000      -0.329506        -8.9663
  52   2.0000      -0.324289        -8.8243
  53   2.0000      -0.324025        -8.8172
  54   2.0000      -0.322957        -8.7881
  55   2.0000      -0.320357        -8.7174
  56   2.0000      -0.317376        -8.6362
  57   2.0000      -0.315669        -8.5898
  58   2.0000      -0.306915        -8.3516
  59   2.0000      -0.306775        -8.3478
  60   0.0000      -0.001011        -0.0275
  61   0.0000       0.015403         0.4191
  62   0.0000       0.028185         0.7670
  63   0.0000       0.029122         0.7924
  64   0.0000       0.075919         2.0659

MULLIKEN ATOMIC CHARGES
-----------------------
   0 O :   -0.747308
   1 H :    0.370888
   2 H :    0.357662
   3 O :   -0.678759
   4 H :    0.381107
   5 H :    0.358357
   6 O :   -0.740352
   7 H :    0.365458
   8 H :    0.334463
   9 O :   -0.741517
  10 H :    0.367058
  11 H :    0.334645
  12 O :   -0.722422
  13 H :    0.389209
  14 H :    0.336284
  15 O :   -0.688231
  16 H :    0.355432
  17 H :    0.349164
  18 O :   -0.743293
  19 H :    0.370416
  20 H :    0.349542
  21 O :   -0.778692
  22 H :    0.358301
  23 H :    0.404286
  24 O :   -0.720692
  25 H :    0.335921
  26 H :    0.388034
  27 O :   -0.677706
  28 H :    0.359876
  29 H :    0.381770
  30 O :   -0.776414
  31 H :    0.344331
  32 H :    0.403134
  33 O :   -0.686682
  34 H :    0.351514
  35 H :    0.355214
Sum of atomic charges:    0.0000000

LOEWDIN ATOMIC CHARGES
----------------------
   0 O :   -0.307275
   1 H :    0.147800
   2 H :    0.135841
   3 O :   -0.266421
   4 H :    0.156180
   5 H :    0.147052
   6 O :   -0.316449
   7 H :    0.142820
   8 H :    0.160327
   9 O :   -0.315656
  10 H :    0.142620
  11 H :    0.160221
  12 O :   -0.297392
  13 H :    0.148659
  14 H :    0.164739
  15 O :   -0.285982
  16 H :    0.146092
  17 H :    0.145724
  18 O :   -0.305531
  19 H :    0.147894
  20 H :    0.137052
  21 O :   -0.308201
  22 H :    0.133990
  23 H :    0.149492
  24 O :   -0.297381
  25 H :    0.164928
  26 H :    0.149433
  27 O :   -0.268257
  28 H :    0.148399
  29 H :    0.155797
  30 O :   -0.306645
  31 H :    0.133698
  32 H :    0.150478
  33 O :   -0.286488
  34 H :    0.146836
  35 H :    0.145605

  Mayer bond orders larger than 0.1
B(  0-O ,  1-H ) :   0.7987 B(  0-O ,  2-H ) :   0.7514 B(  0-O , 20-H ) :   0.1700
B(  1-H ,  9-O ) :   0.1116 B(  2-H , 30-O ) :   0.1664 B(  3-O ,  4-H ) :   0.8192
B(  3-O ,  5-H ) :   0.8155 B(  3-O , 10-H ) :   0.2183 B(  5-H , 12-O ) :   0.1040
B(  6-O ,  7-H ) :   0.6981 B(  6-O ,  8-H ) :   0.8875 B(  6-O , 19-H ) :   0.1108
B(  7-H , 27-O ) :   0.2192 B(  9-O , 10-H ) :   0.6976 B(  9-O , 11-H ) :   0.8872
B( 12-O , 13-H ) :   0.7532 B( 12-O , 14-H ) :   0.8861 B( 13-H , 21-O ) :   0.1220
B( 15-O , 16-H ) :   0.8232 B( 15-O , 17-H ) :   0.8339 B( 15-O , 23-H ) :   0.1735
B( 18-O , 19-H ) :   0.7993 B( 18-O , 20-H ) :   0.7543 B( 18-O , 22-H ) :   0.1710
B( 21-O , 22-H ) :   0.7457 B( 21-O , 23-H ) :   0.7219 B( 21-O , 31-H ) :   0.1755
B( 24-O , 25-H ) :   0.8863 B( 24-O , 26-H ) :   0.7556 B( 26-H , 30-O ) :   0.1214
B( 27-O , 28-H ) :   0.8202 B( 27-O , 29-H ) :   0.8173 B( 30-O , 31-H ) :   0.7500
B( 30-O , 32-H ) :   0.7201 B( 32-H , 33-O ) :   0.1768 B( 33-O , 34-H ) :   0.8364
B( 33-O , 35-H ) :   0.8220

Dispersion correction           -0.044646872
FINAL SINGLE POINT ENERGY      -917.328901083569

DIPOLE MOMENT
-------------
                                X             Y             Z
Electronic contribution:     -0.00500       0.03124       0.01598
Nuclear contribution   :      0.00604      -0.02963      -0.00078
                        -----------------------------------------
Total Dipole Moment    :      0.00103       0.00161       0.01520
                        -----------------------------------------
Magnitude (a.u.)       :      0.01532
Magnitude (Debye)      :      0.03893

                             ****ORCA TERMINATED NORMALLY****
TOTAL RUN TIME: 0 days 0 hours 1 minutes 28 seconds 381 msec
