                         Program Version 4.2.0 -  RELEASE  -
|  1> # 12meoh.boyd.etal.mol5,7,10
|  2> ! MP2 def2-TZVP EnGrad TightSCF
|  3>
|  4> %pal
|  5>     nprocs 6
|  6> end
|  7>
|  8> %maxcore 8000
|  9>
| 10> %scf
| 11>     ConvForced true
| 12> end
| 13>
| 14> *xyz 0 1
| 15> O  -0.662721750   1.449094618  -1.383082065
| 16> H   0.064188300   2.119867608  -1.465650660
| 17> C  -0.353319239   0.341218776  -2.229326771
| 18> H  -1.072358530  -0.454743281  -2.019906495
| 19> H   0.657636746  -0.044472139  -2.042736771
| 20> H  -0.434616607   0.624733901  -3.287793021
| 21> O   4.310535586  -1.588322800   0.656128299
| 22> H   3.804372199  -1.630404735  -0.196849819
| 23> C   4.312298137  -2.894980854   1.222112691
| 24> H   4.713177833  -2.819907076   2.237066773
| 25> H   4.957796734  -3.574699304   0.648211180
| 26> H   3.302735989  -3.324433205   1.269756773
| 27> O  -5.201143618   0.064582726  -0.172223772
| 28> H  -4.686891530   0.869258890   0.107806143
| 29> C  -6.513192168   0.171391798   0.359883449
| 30> H  -7.049381312  -0.749234190   0.111361174
| 31> H  -7.057741163   1.017801101  -0.081819420
| 32> H  -6.514770575   0.292264928   1.453058834
| 33> *
| 34>
| 35>                          ****END OF INPUT****

CARTESIAN COORDINATES (ANGSTROEM)
---------------------------------
  O     -0.662722    1.449095   -1.383082
  H      0.064188    2.119868   -1.465651
  C     -0.353319    0.341219   -2.229327
  H     -1.072359   -0.454743   -2.019906
  H      0.657637   -0.044472   -2.042737
  H     -0.434617    0.624734   -3.287793
  O      4.310536   -1.588323    0.656128
  H      3.804372   -1.630405   -0.196850
  C      4.312298   -2.894981    1.222113
  H      4.713178   -2.819907    2.237067
  H      4.957797   -3.574699    0.648211
  H      3.302736   -3.324433    1.269757
  O     -5.201144    0.064583   -0.172224
  H     -4.686892    0.869259    0.107806
  C     -6.513192    0.171392    0.359883
  H     -7.049381   -0.749234    0.111361
  H     -7.057741    1.017801   -0.081819
  H     -6.514771    0.292265    1.453059

 Total Charge           Charge          ....    0
 Multiplicity           Mult            ....    1
 Number of Electrons    NEL             ....   54
 Basis Dimension        Dim             ....  258

ORBITAL ENERGIES
----------------

  NO   OCC          E(Eh)            E(eV)
   0   2.0000     -20.558306      -559.4199
   1   2.0000     -20.557239      -559.3909
   2   2.0000     -20.551793      -559.2427
   3   2.0000     -11.272173      -306.7314
   4   2.0000     -11.272073      -306.7287
   5   2.0000     -11.267169      -306.5952
   6   2.0000      -1.347936       -36.6792
   7   2.0000      -1.345402       -36.6103
   8   2.0000      -1.342009       -36.5179
   9   2.0000      -0.920288       -25.0423
  10   2.0000      -0.920079       -25.0366
  11   2.0000      -0.914672       -24.8895
  12   2.0000      -0.682627       -18.5752
  13   2.0000      -0.681000       -18.5309
  14   2.0000      -0.677005       -18.4222
  15   2.0000      -0.617530       -16.8038
  16   2.0000      -0.617063       -16.7912
  17   2.0000      -0.612132       -16.6570
  18   2.0000      -0.591513       -16.0959
  19   2.0000      -0.590543       -16.0695
  20   2.0000      -0.586495       -15.9593
  21   2.0000      -0.501591       -13.6490
  22   2.0000      -0.500675       -13.6241
  23   2.0000      -0.495021       -13.4702
  24   2.0000      -0.449882       -12.2419
  25   2.0000      -0.449742       -12.2381
  26   2.0000      -0.443389       -12.0652
  27   0.0000       0.113109         3.0778
  28   0.0000       0.136598         3.7170
  29   0.0000       0.147629         4.0172
  30   0.0000       0.168443         4.5836
  31   0.0000       0.177909         4.8412

MULLIKEN ATOMIC CHARGES
-----------------------
   0 O :   -0.501431
   1 H :    0.322256
   2 C :   -0.171468
   3 H :    0.138570
   4 H :    0.101039
   5 H :    0.111160
   6 O :   -0.495989
   7 H :    0.320027
   8 C :   -0.174891
   9 H :    0.129655
  10 H :    0.109180
  11 H :    0.112076
  12 O :   -0.497790
  13 H :    0.327320
  14 C :   -0.172472
  15 H :    0.126654
  16 H :    0.107800
  17 H :    0.108304
Sum of atomic charges:    0.0000000

LOEWDIN ATOMIC CHARGES
----------------------
   0 O :   -0.113796
   1 H :    0.188917
   2 C :   -0.376521
   3 H :    0.112254
   4 H :    0.093142
   5 H :    0.096101
   6 O :   -0.109434
   7 H :    0.188606
   8 C :   -0.380970
   9 H :    0.110254
  10 H :    0.095321
  11 H :    0.096210
  12 O :   -0.106856
  13 H :    0.193617
  14 C :   -0.386015
  15 H :    0.109456
  16 H :    0.094718
  17 H :    0.094996

  Mayer bond orders larger than 0.100000
B(  0-O ,  1-H ) :   0.8422 B(  0-O ,  2-C ) :   0.9230 B(  2-C ,  3-H ) :   0.9365
B(  2-C ,  4-H ) :   0.9396 B(  2-C ,  5-H ) :   0.9393 B(  6-O ,  7-H ) :   0.8438
B(  6-O ,  8-C ) :   0.9254 B(  8-C ,  9-H ) :   0.9376 B(  8-C , 10-H ) :   0.9384
B(  8-C , 11-H ) :   0.9400 B( 12-O , 13-H ) :   0.8382 B( 12-O , 14-C ) :   0.9313
B( 14-C , 15-H ) :   0.9380 B( 14-C , 16-H ) :   0.9389 B( 14-C , 17-H ) :   0.9386

MP2 TOTAL ENERGY:     -346.520618001 Eh
FINAL SINGLE POINT ENERGY      -346.520618001246

DIPOLE MOMENT
-------------
                                X             Y             Z
Electronic contribution:      1.18074       2.72426      -0.20794
Nuclear contribution   :     -1.12951      -2.78619      -0.08583
                        -----------------------------------------
Total Dipole Moment    :      0.05123      -0.06193      -0.29376
                        -----------------------------------------
Magnitude (a.u.)       :      0.30456
Magnitude (Debye)      :      0.77414

Rotational constants in cm-1:     0.069581     0.009392     0.008480
Rotational constants in MHz :  2085.986696   281.567229   254.215312

                             ****ORCA TERMINATED NORMALLY****
TOTAL RUN TIME: 0 days 0 hours 0 minutes 43 seconds 794 msec
