                         Program Version 4.2.0 -  RELEASE  -
|  1> # 12h2o.su.etal.mol0,2,6,7,9,10
|  2> ! MP2 def2-TZVP EnGrad TightSCF
|  3>
|  4> %pal
|  5>     nprocs 6
|  6> end
|  7>
|  8> %maxcore 8000
|  9>
| 10> %scf
| 11>     ConvForced true
| 12> end
| 13>
| 14> *xyz 0 1
| 15> O   1.794470000   0.923410000   2.768350000
| 16> H   2.338250000   1.359750000   3.430940000
| 17> H   0.879480000   1.303000000   2.865760000
| 18> O   0.923410000  -1.794470000  -2.768350000
| 19> H   1.359750000  -2.338250000  -3.430940000
| 20> H   1.303000000  -0.879480000  -2.865760000
| 21> O   1.737840000   0.885520000  -0.052730000
| 22> H   2.090180000   1.032320000   0.841890000
| 23> H   0.839590000   1.284090000  -0.017130000
| 24> O  -1.737840000  -0.885520000  -0.052730000
| 25> H  -2.090180000  -1.032320000   0.841890000
| 26> H  -0.839590000  -1.284090000  -0.017130000
| 27> O   0.741530000  -1.752130000   2.896280000
| 28> H   0.920500000  -2.036450000   1.984040000
| 29> H   1.242140000  -0.921210000   2.984230000
| 30> O  -0.923410000   1.794470000  -2.768350000
| 31> H  -1.359750000   2.338250000  -3.430940000
| 32> H  -1.303000000   0.879480000  -2.865760000
| 33> *
| 34>
| 35>                          ****END OF INPUT****

CARTESIAN COORDINATES (ANGSTROEM)
---------------------------------
  O      1.794470    0.923410    2.768350
  H      2.338250    1.359750    3.430940
  H      0.879480    1.303000    2.865760
  O      0.923410   -1.794470   -2.768350
  H      1.359750   -2.338250   -3.430940
  H      1.303000   -0.879480   -2.865760
  O      1.737840    0.885520   -0.052730
  H      2.090180    1.032320    0.841890
  H      0.839590    1.284090   -0.017130
  O     -1.737840   -0.885520   -0.052730
  H     -2.090180   -1.032320    0.841890
  H     -0.839590   -1.284090   -0.017130
  O      0.741530   -1.752130    2.896280
  H      0.920500   -2.036450    1.984040
  H      1.242140   -0.921210    2.984230
  O     -0.923410    1.794470   -2.768350
  H     -1.359750    2.338250   -3.430940
  H     -1.303000    0.879480   -2.865760

 Total Charge           Charge          ....    0
 Multiplicity           Mult            ....    1
 Number of Electrons    NEL             ....   60
 Basis Dimension        Dim             ....  258

ORBITAL ENERGIES
----------------

  NO   OCC          E(Eh)            E(eV)
   0   2.0000     -20.616389      -561.0005
   1   2.0000     -20.551631      -559.2383
   2   2.0000     -20.551448      -559.2333
   3   2.0000     -20.550345      -559.2033
   4   2.0000     -20.542065      -558.9780
   5   2.0000     -20.535948      -558.8115
   6   2.0000      -1.396515       -38.0011
   7   2.0000      -1.327191       -36.1147
   8   2.0000      -1.326683       -36.1009
   9   2.0000      -1.326219       -36.0882
  10   2.0000      -1.324238       -36.0344
  11   2.0000      -1.315025       -35.7837
  12   2.0000      -0.762183       -20.7401
  13   2.0000      -0.696781       -18.9604
  14   2.0000      -0.695462       -18.9245
  15   2.0000      -0.693375       -18.8677
  16   2.0000      -0.688052       -18.7228
  17   2.0000      -0.686206       -18.6726
  18   2.0000      -0.630888       -17.1673
  19   2.0000      -0.582819       -15.8593
  20   2.0000      -0.566641       -15.4191
  21   2.0000      -0.564108       -15.3502
  22   2.0000      -0.563409       -15.3311
  23   2.0000      -0.555201       -15.1078
  24   2.0000      -0.537438       -14.6244
  25   2.0000      -0.496420       -13.5083
  26   2.0000      -0.494231       -13.4487
  27   2.0000      -0.493526       -13.4295
  28   2.0000      -0.488945       -13.3049
  29   2.0000      -0.480902       -13.0860
  30   0.0000       0.089291         2.4297
  31   0.0000       0.120222         3.2714
  32   0.0000       0.143174         3.8960
  33   0.0000       0.152316         4.1447
  34   0.0000       0.166323         4.5259

MULLIKEN ATOMIC CHARGES
-----------------------
   0 O :   -0.711995
   1 H :    0.364913
   2 H :    0.368202
   3 O :   -0.694023
   4 H :    0.334676
   5 H :    0.359778
   6 O :   -0.700907
   7 H :    0.357837
   8 H :    0.337642
   9 O :   -0.686587
  10 H :    0.336128
  11 H :    0.347250
  12 O :   -0.704063
  13 H :    0.333546
  14 H :    0.357038
  15 O :   -0.692362
  16 H :    0.333916
  17 H :    0.359010
Sum of atomic charges:    0.0000000

LOEWDIN ATOMIC CHARGES
----------------------
   0 O :   -0.286513
   1 H :    0.168114
   2 H :    0.191038
   3 O :   -0.342089
   4 H :    0.156309
   5 H :    0.185933
   6 O :   -0.345133
   7 H :    0.144936
   8 H :    0.167686
   9 O :   -0.337839
  10 H :    0.163713
  11 H :    0.171470
  12 O :   -0.344474
  13 H :    0.160177
  14 H :    0.146377
  15 O :   -0.341439
  16 H :    0.155979
  17 H :    0.185753

  Mayer bond orders larger than 0.100000
B(  0-O ,  1-H ) :   0.8313 B(  0-O ,  2-H ) :   0.8221 B(  3-O ,  4-H ) :   0.8548
B(  3-O ,  5-H ) :   0.8312 B(  6-O ,  7-H ) :   0.8284 B(  6-O ,  8-H ) :   0.8450
B(  9-O , 10-H ) :   0.8520 B(  9-O , 11-H ) :   0.8386 B( 12-O , 13-H ) :   0.8532
B( 12-O , 14-H ) :   0.8236 B( 15-O , 16-H ) :   0.8552 B( 15-O , 17-H ) :   0.8318

MP2 TOTAL ENERGY:     -457.898859706 Eh
FINAL SINGLE POINT ENERGY      -457.898859706484

DIPOLE MOMENT
-------------
                                X             Y             Z
Electronic contribution:      0.06974      -0.01364       0.11492
Nuclear contribution   :      0.25668       1.13412       0.22986
                        -----------------------------------------
Total Dipole Moment    :      0.32641       1.12048       0.34478
                        -----------------------------------------
Magnitude (a.u.)       :      1.21691
Magnitude (Debye)      :      3.09315

Rotational constants in cm-1:     0.046309     0.022008     0.020139
Rotational constants in MHz :  1388.312705   659.792662   603.750596

                             ****ORCA TERMINATED NORMALLY****
TOTAL RUN TIME: 0 days 0 hours 0 minutes 55 seconds 633 msec
