                         Program Version 4.2.0 -  RELEASE  -
|  1> # 12h2o.su.etal.mol1,3,8,9
|  2> ! MP2 def2-TZVP EnGrad TightSCF
|  3>
|  4> %pal
|  5>     nprocs 6
|  6> end
|  7>
|  8> %maxcore 8000
|  9>
| 10> %scf
| 11>     ConvForced true
| 12> end
| 13>
| 14> *xyz 0 1
| 15> O  -1.794470000  -0.923410000   2.768350000
| 16> H  -2.338250000  -1.359750000   3.430940000
| 17> H  -0.879480000  -1.303000000   2.865760000
| 18> O  -1.752130000  -0.741530000  -2.896280000
| 19> H  -2.036450000  -0.920500000  -1.984040000
| 20> H  -0.921210000  -1.242140000  -2.984230000
| 21> O   1.752130000   0.741530000  -2.896280000
| 22> H   2.036450000   0.920500000  -1.984040000
| 23> H   0.921210000   1.242140000  -2.984230000
| 24> O   0.741530000  -1.752130000   2.896280000
| 25> H   0.920500000  -2.036450000   1.984040000
| 26> H   1.242140000  -0.921210000   2.984230000
| 27> *
| 28>
| 29>                          ****END OF INPUT****

CARTESIAN COORDINATES (ANGSTROEM)
---------------------------------
  O     -1.794470   -0.923410    2.768350
  H     -2.338250   -1.359750    3.430940
  H     -0.879480   -1.303000    2.865760
  O     -1.752130   -0.741530   -2.896280
  H     -2.036450   -0.920500   -1.984040
  H     -0.921210   -1.242140   -2.984230
  O      1.752130    0.741530   -2.896280
  H      2.036450    0.920500   -1.984040
  H      0.921210    1.242140   -2.984230
  O      0.741530   -1.752130    2.896280
  H      0.920500   -2.036450    1.984040
  H      1.242140   -0.921210    2.984230

 Total Charge           Charge          ....    0
 Multiplicity           Mult            ....    1
 Number of Electrons    NEL             ....   40
 Basis Dimension        Dim             ....  172

ORBITAL ENERGIES
----------------

  NO   OCC          E(Eh)            E(eV)
   0   2.0000     -20.607553      -560.7600
   1   2.0000     -20.567282      -559.6642
   2   2.0000     -20.560897      -559.4904
   3   2.0000     -20.525676      -558.5320
   4   2.0000      -1.392803       -37.9001
   5   2.0000      -1.346469       -36.6393
   6   2.0000      -1.340083       -36.4655
   7   2.0000      -1.308103       -35.5953
   8   2.0000      -0.750303       -20.4168
   9   2.0000      -0.709291       -19.3008
  10   2.0000      -0.702348       -19.1118
  11   2.0000      -0.699603       -19.0372
  12   2.0000      -0.627076       -17.0636
  13   2.0000      -0.584232       -15.8978
  14   2.0000      -0.577910       -15.7257
  15   2.0000      -0.567044       -15.4301
  16   2.0000      -0.523247       -14.2383
  17   2.0000      -0.512724       -13.9519
  18   2.0000      -0.503941       -13.7129
  19   2.0000      -0.476061       -12.9543
  20   0.0000       0.094821         2.5802
  21   0.0000       0.117064         3.1855
  22   0.0000       0.147352         4.0096
  23   0.0000       0.169942         4.6243
  24   0.0000       0.174814         4.7569

MULLIKEN ATOMIC CHARGES
-----------------------
   0 O :   -0.733190
   1 H :    0.328110
   2 H :    0.362676
   3 O :   -0.682932
   4 H :    0.341301
   5 H :    0.341603
   6 O :   -0.680950
   7 H :    0.332020
   8 H :    0.348762
   9 O :   -0.674598
  10 H :    0.357268
  11 H :    0.359930
Sum of atomic charges:   -0.0000000

LOEWDIN ATOMIC CHARGES
----------------------
   0 O :   -0.372815
   1 H :    0.149804
   2 H :    0.140925
   3 O :   -0.333153
   4 H :    0.166925
   5 H :    0.166235
   6 O :   -0.332697
   7 H :    0.163051
   8 H :    0.169521
   9 O :   -0.269478
  10 H :    0.174523
  11 H :    0.177158

  Mayer bond orders larger than 0.100000
B(  0-O ,  1-H ) :   0.8593 B(  0-O ,  2-H ) :   0.7907 B(  3-O ,  4-H ) :   0.8503
B(  3-O ,  5-H ) :   0.8471 B(  6-O ,  7-H ) :   0.8559 B(  6-O ,  8-H ) :   0.8428
B(  9-O , 10-H ) :   0.8377 B(  9-O , 11-H ) :   0.8357

MP2 TOTAL ENERGY:     -305.261685370 Eh
FINAL SINGLE POINT ENERGY      -305.261685370037

DIPOLE MOMENT
-------------
                                X             Y             Z
Electronic contribution:      0.14977      -0.04343      -0.20237
Nuclear contribution   :      0.87464      -0.22418       1.31870
                        -----------------------------------------
Total Dipole Moment    :      1.02440      -0.26761       1.11633
                        -----------------------------------------
Magnitude (a.u.)       :      1.53857
Magnitude (Debye)      :      3.91074

Rotational constants in cm-1:     0.087712     0.026046     0.021149
Rotational constants in MHz :  2629.550873   780.838311   634.036520

                             ****ORCA TERMINATED NORMALLY****
TOTAL RUN TIME: 0 days 0 hours 0 minutes 13 seconds 203 msec
