                         Program Version 4.2.0 -  RELEASE  -
|  1> # 12mecn.remya.etal.2.mol0,7,11
|  2> ! MP2 def2-TZVP EnGrad TightSCF
|  3>
|  4> %pal
|  5>     nprocs 6
|  6> end
|  7>
|  8> %maxcore 8000
|  9>
| 10> %scf
| 11>     ConvForced true
| 12> end
| 13>
| 14> *xyz 0 1
| 15> C  -0.869520000  -3.929380000   1.700199000
| 16> H  -0.057420000  -3.268850000   2.015352000
| 17> H  -0.697530000  -4.930670000   2.101524000
| 18> H  -1.821490000  -3.546590000   2.077146000
| 19> C  -0.916080000  -3.969960000   0.256749000
| 20> N  -0.955390000  -3.995980000  -0.909290000
| 21> C   1.502241000   0.651296000   1.710523000
| 22> H   1.309219000   1.637164000   2.143202000
| 23> H   2.493408000   0.297996000   2.009069000
| 24> H   0.746597000  -0.059850000   2.055508000
| 25> C   1.447974000   0.738517000   0.269805000
| 26> N   1.405612000   0.808047000  -0.894380000
| 27> C   4.214163000   3.378139000   1.593627000
| 28> H   3.242643000   3.657109000   2.012358000
| 29> H   4.969258000   4.086643000   1.941290000
| 30> H   4.482966000   2.372549000   1.931698000
| 31> C   4.130759000   3.388436000   0.150192000
| 32> N   4.050180000   3.381449000  -1.013420000
| 33> *
| 34>
| 35>                          ****END OF INPUT****

CARTESIAN COORDINATES (ANGSTROEM)
---------------------------------
  C     -0.869520   -3.929380    1.700199
  H     -0.057420   -3.268850    2.015352
  H     -0.697530   -4.930670    2.101524
  H     -1.821490   -3.546590    2.077146
  C     -0.916080   -3.969960    0.256749
  N     -0.955390   -3.995980   -0.909290
  C      1.502241    0.651296    1.710523
  H      1.309219    1.637164    2.143202
  H      2.493408    0.297996    2.009069
  H      0.746597   -0.059850    2.055508
  C      1.447974    0.738517    0.269805
  N      1.405612    0.808047   -0.894380
  C      4.214163    3.378139    1.593627
  H      3.242643    3.657109    2.012358
  H      4.969258    4.086643    1.941290
  H      4.482966    2.372549    1.931698
  C      4.130759    3.388436    0.150192
  N      4.050180    3.381449   -1.013420

 Total Charge           Charge          ....    0
 Multiplicity           Mult            ....    1
 Number of Electrons    NEL             ....   66
 Basis Dimension        Dim             ....  333

ORBITAL ENERGIES
----------------

  NO   OCC          E(Eh)            E(eV)
   0   2.0000     -15.574280      -423.7977
   1   2.0000     -15.572976      -423.7622
   2   2.0000     -15.571999      -423.7356
   3   2.0000     -11.294281      -307.3330
   4   2.0000     -11.291062      -307.2454
   5   2.0000     -11.289718      -307.2088
   6   2.0000     -11.280150      -306.9485
   7   2.0000     -11.276787      -306.8570
   8   2.0000     -11.276675      -306.8539
   9   2.0000      -1.214820       -33.0569
  10   2.0000      -1.213122       -33.0107
  11   2.0000      -1.211741       -32.9731
  12   2.0000      -1.051619       -28.6160
  13   2.0000      -1.048005       -28.5177
  14   2.0000      -1.047252       -28.4972
  15   2.0000      -0.705909       -19.2088
  16   2.0000      -0.703617       -19.1464
  17   2.0000      -0.702945       -19.1281
  18   2.0000      -0.646000       -17.5786
  19   2.0000      -0.643142       -17.5008
  20   2.0000      -0.637224       -17.3397
  21   2.0000      -0.636082       -17.3087
  22   2.0000      -0.635858       -17.3026
  23   2.0000      -0.631561       -17.1857
  24   2.0000      -0.555754       -15.1228
  25   2.0000      -0.554064       -15.0768
  26   2.0000      -0.551334       -15.0026
  27   2.0000      -0.463653       -12.6166
  28   2.0000      -0.458085       -12.4651
  29   2.0000      -0.458045       -12.4640
  30   2.0000      -0.457559       -12.4508
  31   2.0000      -0.454391       -12.3646
  32   2.0000      -0.447342       -12.1728
  33   0.0000       0.085475         2.3259
  34   0.0000       0.108864         2.9623
  35   0.0000       0.140747         3.8299
  36   0.0000       0.146470         3.9857
  37   0.0000       0.152892         4.1604

MULLIKEN ATOMIC CHARGES
-----------------------
   0 C :   -0.281399
   1 H :    0.159456
   2 H :    0.175565
   3 H :    0.173232
   4 C :   -0.143984
   5 N :   -0.082938
   6 C :   -0.283167
   7 H :    0.165403
   8 H :    0.166680
   9 H :    0.171254
  10 C :   -0.154293
  11 N :   -0.065809
  12 C :   -0.284005
  13 H :    0.163225
  14 H :    0.182954
  15 H :    0.162709
  16 C :   -0.155303
  17 N :   -0.069579
Sum of atomic charges:   -0.0000000

LOEWDIN ATOMIC CHARGES
----------------------
   0 C :   -0.285444
   1 H :    0.148154
   2 H :    0.152002
   3 H :    0.152581
   4 C :   -0.221062
   5 N :    0.053784
   6 C :   -0.289553
   7 H :    0.149054
   8 H :    0.149865
   9 H :    0.149748
  10 C :   -0.226953
  11 N :    0.067736
  12 C :   -0.288603
  13 H :    0.149003
  14 H :    0.152008
  15 H :    0.149072
  16 C :   -0.224509
  17 N :    0.063116

  Mayer bond orders larger than 0.100000
B(  0-C ,  1-H ) :   0.9199 B(  0-C ,  2-H ) :   0.9168 B(  0-C ,  3-H ) :   0.9174
B(  0-C ,  4-C ) :   0.9006 B(  4-C ,  5-N ) :   2.8294 B(  6-C ,  7-H ) :   0.9215
B(  6-C ,  8-H ) :   0.9233 B(  6-C ,  9-H ) :   0.9147 B(  6-C , 10-C ) :   0.8948
B( 10-C , 11-N ) :   2.8189 B( 12-C , 13-H ) :   0.9225 B( 12-C , 14-H ) :   0.9109
B( 12-C , 15-H ) :   0.9210 B( 12-C , 16-C ) :   0.9002 B( 16-C , 17-N ) :   2.8253

MP2 TOTAL ENERGY:     -397.445156347 Eh
FINAL SINGLE POINT ENERGY      -397.445156346765

DIPOLE MOMENT
-------------
                                X             Y             Z
Electronic contribution:     -0.40516       0.13248      -9.60000
Nuclear contribution   :      0.59383      -0.18389      13.89807
                        -----------------------------------------
Total Dipole Moment    :      0.18866      -0.05141       4.29808
                        -----------------------------------------
Magnitude (a.u.)       :      4.30252
Magnitude (Debye)      :     10.93614

Rotational constants in cm-1:     0.095005     0.010098     0.009315
Rotational constants in MHz :  2848.172532   302.736813   279.255649

                             ****ORCA TERMINATED NORMALLY****
TOTAL RUN TIME: 0 days 0 hours 2 minutes 53 seconds 64 msec
