                         Program Version 4.2.0 -  RELEASE  -
|  1> # 12h2o.su.etal.mol0,1,4,7,8,9,10
|  2> ! MP2 def2-TZVP EnGrad TightSCF
|  3>
|  4> %pal
|  5>     nprocs 6
|  6> end
|  7>
|  8> %maxcore 8000
|  9>
| 10> %scf
| 11>     ConvForced true
| 12> end
| 13>
| 14> *xyz 0 1
| 15> O   1.794470000   0.923410000   2.768350000
| 16> H   2.338250000   1.359750000   3.430940000
| 17> H   0.879480000   1.303000000   2.865760000
| 18> O  -1.794470000  -0.923410000   2.768350000
| 19> H  -2.338250000  -1.359750000   3.430940000
| 20> H  -0.879480000  -1.303000000   2.865760000
| 21> O  -0.885520000   1.737840000   0.052730000
| 22> H  -1.032320000   2.090180000  -0.841890000
| 23> H  -1.284090000   0.839590000   0.017130000
| 24> O  -1.737840000  -0.885520000  -0.052730000
| 25> H  -2.090180000  -1.032320000   0.841890000
| 26> H  -0.839590000  -1.284090000  -0.017130000
| 27> O   1.752130000   0.741530000  -2.896280000
| 28> H   2.036450000   0.920500000  -1.984040000
| 29> H   0.921210000   1.242140000  -2.984230000
| 30> O   0.741530000  -1.752130000   2.896280000
| 31> H   0.920500000  -2.036450000   1.984040000
| 32> H   1.242140000  -0.921210000   2.984230000
| 33> O  -0.923410000   1.794470000  -2.768350000
| 34> H  -1.359750000   2.338250000  -3.430940000
| 35> H  -1.303000000   0.879480000  -2.865760000
| 36> *
| 37>
| 38>                          ****END OF INPUT****

CARTESIAN COORDINATES (ANGSTROEM)
---------------------------------
  O      1.794470    0.923410    2.768350
  H      2.338250    1.359750    3.430940
  H      0.879480    1.303000    2.865760
  O     -1.794470   -0.923410    2.768350
  H     -2.338250   -1.359750    3.430940
  H     -0.879480   -1.303000    2.865760
  O     -0.885520    1.737840    0.052730
  H     -1.032320    2.090180   -0.841890
  H     -1.284090    0.839590    0.017130
  O     -1.737840   -0.885520   -0.052730
  H     -2.090180   -1.032320    0.841890
  H     -0.839590   -1.284090   -0.017130
  O      1.752130    0.741530   -2.896280
  H      2.036450    0.920500   -1.984040
  H      0.921210    1.242140   -2.984230
  O      0.741530   -1.752130    2.896280
  H      0.920500   -2.036450    1.984040
  H      1.242140   -0.921210    2.984230
  O     -0.923410    1.794470   -2.768350
  H     -1.359750    2.338250   -3.430940
  H     -1.303000    0.879480   -2.865760

 Total Charge           Charge          ....    0
 Multiplicity           Mult            ....    1
 Number of Electrons    NEL             ....   70
 Basis Dimension        Dim             ....  301

ORBITAL ENERGIES
----------------

  NO   OCC          E(Eh)            E(eV)
   0   2.0000     -20.598719      -560.5196
   1   2.0000     -20.588443      -560.2400
   2   2.0000     -20.583016      -560.0923
   3   2.0000     -20.562016      -559.5209
   4   2.0000     -20.549011      -559.1670
   5   2.0000     -20.527927      -558.5933
   6   2.0000     -20.499257      -557.8131
   7   2.0000      -1.378914       -37.5222
   8   2.0000      -1.375796       -37.4373
   9   2.0000      -1.362735       -37.0819
  10   2.0000      -1.348062       -36.6826
  11   2.0000      -1.329830       -36.1865
  12   2.0000      -1.310379       -35.6572
  13   2.0000      -1.283467       -34.9249
  14   2.0000      -0.744497       -20.2588
  15   2.0000      -0.739691       -20.1280
  16   2.0000      -0.725686       -19.7469
  17   2.0000      -0.716816       -19.5056
  18   2.0000      -0.707947       -19.2642
  19   2.0000      -0.681101       -18.5337
  20   2.0000      -0.667970       -18.1764
  21   2.0000      -0.626659       -17.0523
  22   2.0000      -0.616583       -16.7781
  23   2.0000      -0.601692       -16.3729
  24   2.0000      -0.589919       -16.0525
  25   2.0000      -0.571214       -15.5435
  26   2.0000      -0.562451       -15.3051
  27   2.0000      -0.539622       -14.6838
  28   2.0000      -0.530612       -14.4387
  29   2.0000      -0.521692       -14.1960
  30   2.0000      -0.519000       -14.1227
  31   2.0000      -0.498696       -13.5702
  32   2.0000      -0.491578       -13.3765
  33   2.0000      -0.475788       -12.9468
  34   2.0000      -0.450046       -12.2464
  35   0.0000       0.093375         2.5409
  36   0.0000       0.115237         3.1358
  37   0.0000       0.131074         3.5667
  38   0.0000       0.154927         4.2158
  39   0.0000       0.176918         4.8142

MULLIKEN ATOMIC CHARGES
-----------------------
   0 O :   -0.705673
   1 H :    0.352694
   2 H :    0.380084
   3 O :   -0.738262
   4 H :    0.338591
   5 H :    0.367731
   6 O :   -0.739732
   7 H :    0.351916
   8 H :    0.348431
   9 O :   -0.699998
  10 H :    0.383799
  11 H :    0.328304
  12 O :   -0.710427
  13 H :    0.335428
  14 H :    0.356457
  15 O :   -0.697612
  16 H :    0.345913
  17 H :    0.381089
  18 O :   -0.711466
  19 H :    0.358390
  20 H :    0.374342
Sum of atomic charges:    0.0000000

LOEWDIN ATOMIC CHARGES
----------------------
   0 O :   -0.310967
   1 H :    0.164330
   2 H :    0.195456
   3 O :   -0.340429
   4 H :    0.154585
   5 H :    0.142449
   6 O :   -0.372838
   7 H :    0.140411
   8 H :    0.136985
   9 O :   -0.302572
  10 H :    0.154808
  11 H :    0.164574
  12 O :   -0.349913
  13 H :    0.162378
  14 H :    0.145897
  15 O :   -0.279475
  16 H :    0.166612
  17 H :    0.156452
  18 O :   -0.286670
  19 H :    0.165083
  20 H :    0.192841

  Mayer bond orders larger than 0.100000
B(  0-O ,  1-H ) :   0.8411 B(  0-O ,  2-H ) :   0.8143 B(  3-O ,  4-H ) :   0.8498
B(  3-O ,  5-H ) :   0.7580 B(  5-H , 15-O ) :   0.1010 B(  6-O ,  7-H ) :   0.8359
B(  6-O ,  8-H ) :   0.8003 B(  9-O , 10-H ) :   0.7907 B(  9-O , 11-H ) :   0.8506
B( 12-O , 13-H ) :   0.8531 B( 12-O , 14-H ) :   0.8236 B( 15-O , 16-H ) :   0.8445
B( 15-O , 17-H ) :   0.7869 B( 18-O , 19-H ) :   0.8350 B( 18-O , 20-H ) :   0.8179

MP2 TOTAL ENERGY:     -534.244216404 Eh
FINAL SINGLE POINT ENERGY      -534.244216403753

DIPOLE MOMENT
-------------
                                X             Y             Z
Electronic contribution:      0.19215       0.03674       0.05929
Nuclear contribution   :     -0.56801      -0.19670       0.63259
                        -----------------------------------------
Total Dipole Moment    :     -0.37586      -0.15996       0.69188
                        -----------------------------------------
Magnitude (a.u.)       :      0.80347
Magnitude (Debye)      :      2.04225

Rotational constants in cm-1:     0.043075     0.018438     0.015775
Rotational constants in MHz :  1291.350603   552.748136   472.927938

                             ****ORCA TERMINATED NORMALLY****
TOTAL RUN TIME: 0 days 0 hours 1 minutes 44 seconds 725 msec
