                         Program Version 4.2.0 -  RELEASE  -
|  1> # 12mecn.remya.etal.2.mol1,2,3
|  2> ! MP2 def2-TZVP EnGrad TightSCF
|  3>
|  4> %pal
|  5>     nprocs 6
|  6> end
|  7>
|  8> %maxcore 8000
|  9>
| 10> %scf
| 11>     ConvForced true
| 12> end
| 13>
| 14> *xyz 0 1
| 15> C  -4.697980000  -0.249690000   1.746215000
| 16> H  -4.927570000   0.755530000   2.111799000
| 17> H  -3.709180000  -0.561560000   2.093253000
| 18> H  -5.432280000  -0.961520000   2.128066000
| 19> C  -4.714100000  -0.247110000   0.301670000
| 20> N  -4.729750000  -0.234960000  -0.865260000
| 21> C  -4.219070000  -3.477410000  -1.501740000
| 22> H  -3.251530000  -3.803540000  -1.893830000
| 23> H  -4.452920000  -2.481700000  -1.890840000
| 24> H  -4.992170000  -4.178130000  -1.824640000
| 25> C  -4.154550000  -3.418790000  -0.058340000
| 26> N  -4.091140000  -3.354840000   1.104432000
| 27> C  -5.181310000   2.853865000  -1.626100000
| 28> H  -5.488260000   3.811434000  -2.053310000
| 29> H  -5.857590000   2.068112000  -1.968630000
| 30> H  -4.170750000   2.611402000  -1.966640000
| 31> C  -5.187260000   2.919160000  -0.181450000
| 32> N  -5.181700000   2.970641000   0.983640000
| 33> *
| 34>
| 35>                          ****END OF INPUT****

CARTESIAN COORDINATES (ANGSTROEM)
---------------------------------
  C     -4.697980   -0.249690    1.746215
  H     -4.927570    0.755530    2.111799
  H     -3.709180   -0.561560    2.093253
  H     -5.432280   -0.961520    2.128066
  C     -4.714100   -0.247110    0.301670
  N     -4.729750   -0.234960   -0.865260
  C     -4.219070   -3.477410   -1.501740
  H     -3.251530   -3.803540   -1.893830
  H     -4.452920   -2.481700   -1.890840
  H     -4.992170   -4.178130   -1.824640
  C     -4.154550   -3.418790   -0.058340
  N     -4.091140   -3.354840    1.104432
  C     -5.181310    2.853865   -1.626100
  H     -5.488260    3.811434   -2.053310
  H     -5.857590    2.068112   -1.968630
  H     -4.170750    2.611402   -1.966640
  C     -5.187260    2.919160   -0.181450
  N     -5.181700    2.970641    0.983640

 Total Charge           Charge          ....    0
 Multiplicity           Mult            ....    1
 Number of Electrons    NEL             ....   66
 Basis Dimension        Dim             ....  333

ORBITAL ENERGIES
----------------

  NO   OCC          E(Eh)            E(eV)
   0   2.0000     -15.570506      -423.6950
   1   2.0000     -15.569695      -423.6729
   2   2.0000     -15.568332      -423.6358
   3   2.0000     -11.285124      -307.0838
   4   2.0000     -11.281588      -306.9876
   5   2.0000     -11.281570      -306.9871
   6   2.0000     -11.273126      -306.7574
   7   2.0000     -11.272856      -306.7500
   8   2.0000     -11.259596      -306.3892
   9   2.0000      -1.219390       -33.1813
  10   2.0000      -1.215107       -33.0647
  11   2.0000      -1.212473       -32.9931
  12   2.0000      -1.035625       -28.1808
  13   2.0000      -1.035027       -28.1645
  14   2.0000      -1.025933       -27.9170
  15   2.0000      -0.694633       -18.9019
  16   2.0000      -0.693678       -18.8759
  17   2.0000      -0.684429       -18.6242
  18   2.0000      -0.631529       -17.1848
  19   2.0000      -0.623657       -16.9706
  20   2.0000      -0.622968       -16.9518
  21   2.0000      -0.620082       -16.8733
  22   2.0000      -0.609700       -16.5908
  23   2.0000      -0.608324       -16.5533
  24   2.0000      -0.560710       -15.2577
  25   2.0000      -0.555769       -15.1232
  26   2.0000      -0.554513       -15.0891
  27   2.0000      -0.462977       -12.5982
  28   2.0000      -0.459364       -12.4999
  29   2.0000      -0.458084       -12.4651
  30   2.0000      -0.457300       -12.4438
  31   2.0000      -0.456222       -12.4144
  32   2.0000      -0.449892       -12.2422
  33   0.0000       0.125201         3.4069
  34   0.0000       0.137125         3.7314
  35   0.0000       0.157323         4.2810
  36   0.0000       0.173064         4.7093
  37   0.0000       0.174296         4.7428

MULLIKEN ATOMIC CHARGES
-----------------------
   0 C :   -0.263747
   1 H :    0.207639
   2 H :    0.171048
   3 H :    0.173064
   4 C :   -0.071799
   5 N :   -0.216135
   6 C :   -0.288287
   7 H :    0.166257
   8 H :    0.201164
   9 H :    0.166389
  10 C :   -0.114371
  11 N :   -0.132117
  12 C :   -0.259759
  13 H :    0.171786
  14 H :    0.181170
  15 H :    0.170275
  16 C :   -0.119165
  17 N :   -0.143410
Sum of atomic charges:   -0.0000000

LOEWDIN ATOMIC CHARGES
----------------------
   0 C :   -0.281969
   1 H :    0.155214
   2 H :    0.156625
   3 H :    0.154713
   4 C :   -0.200011
   5 N :    0.017169
   6 C :   -0.283699
   7 H :    0.151984
   8 H :    0.155698
   9 H :    0.149880
  10 C :   -0.210471
  11 N :    0.038398
  12 C :   -0.285719
  13 H :    0.148543
  14 H :    0.154831
  15 H :    0.155905
  16 C :   -0.209643
  17 N :    0.032552

  Mayer bond orders larger than 0.100000
B(  0-C ,  1-H ) :   0.8934 B(  0-C ,  2-H ) :   0.9105 B(  0-C ,  3-H ) :   0.9118
B(  0-C ,  4-C ) :   0.9123 B(  4-C ,  5-N ) :   2.7064 B(  6-C ,  7-H ) :   0.9154
B(  6-C ,  8-H ) :   0.9038 B(  6-C ,  9-H ) :   0.9164 B(  6-C , 10-C ) :   0.9005
B( 10-C , 11-N ) :   2.7933 B( 12-C , 13-H ) :   0.9104 B( 12-C , 14-H ) :   0.9113
B( 12-C , 15-H ) :   0.9148 B( 12-C , 16-C ) :   0.9121 B( 16-C , 17-N ) :   2.7736

MP2 TOTAL ENERGY:     -397.467804296 Eh
FINAL SINGLE POINT ENERGY      -397.467804296208

DIPOLE MOMENT
-------------
                                X             Y             Z
Electronic contribution:      0.06322       0.31726       3.17855
Nuclear contribution   :     -0.11550      -0.45194      -4.65569
                        -----------------------------------------
Total Dipole Moment    :     -0.05228      -0.13468      -1.47714
                        -----------------------------------------
Magnitude (a.u.)       :      1.48419
Magnitude (Debye)      :      3.77251

Rotational constants in cm-1:     0.094249     0.019733     0.016474
Rotational constants in MHz :  2825.506569   591.580906   493.872292

                             ****ORCA TERMINATED NORMALLY****
TOTAL RUN TIME: 0 days 0 hours 4 minutes 8 seconds 87 msec
