                         Program Version 4.2.0 -  RELEASE  -
|  1> # 12h2o.su.etal.mol0,1,2,3,4,6,7,8
|  2> ! MP2 def2-TZVP EnGrad TightSCF
|  3>
|  4> %pal
|  5>     nprocs 6
|  6> end
|  7>
|  8> %maxcore 8000
|  9>
| 10> %scf
| 11>     ConvForced true
| 12> end
| 13>
| 14> *xyz 0 1
| 15> O   1.794470000   0.923410000   2.768350000
| 16> H   2.338250000   1.359750000   3.430940000
| 17> H   0.879480000   1.303000000   2.865760000
| 18> O  -1.794470000  -0.923410000   2.768350000
| 19> H  -2.338250000  -1.359750000   3.430940000
| 20> H  -0.879480000  -1.303000000   2.865760000
| 21> O   0.923410000  -1.794470000  -2.768350000
| 22> H   1.359750000  -2.338250000  -3.430940000
| 23> H   1.303000000  -0.879480000  -2.865760000
| 24> O  -1.752130000  -0.741530000  -2.896280000
| 25> H  -2.036450000  -0.920500000  -1.984040000
| 26> H  -0.921210000  -1.242140000  -2.984230000
| 27> O  -0.885520000   1.737840000   0.052730000
| 28> H  -1.032320000   2.090180000  -0.841890000
| 29> H  -1.284090000   0.839590000   0.017130000
| 30> O   1.737840000   0.885520000  -0.052730000
| 31> H   2.090180000   1.032320000   0.841890000
| 32> H   0.839590000   1.284090000  -0.017130000
| 33> O  -1.737840000  -0.885520000  -0.052730000
| 34> H  -2.090180000  -1.032320000   0.841890000
| 35> H  -0.839590000  -1.284090000  -0.017130000
| 36> O   1.752130000   0.741530000  -2.896280000
| 37> H   2.036450000   0.920500000  -1.984040000
| 38> H   0.921210000   1.242140000  -2.984230000
| 39> *
| 40>
| 41>                          ****END OF INPUT****

CARTESIAN COORDINATES (ANGSTROEM)
---------------------------------
  O      1.794470    0.923410    2.768350
  H      2.338250    1.359750    3.430940
  H      0.879480    1.303000    2.865760
  O     -1.794470   -0.923410    2.768350
  H     -2.338250   -1.359750    3.430940
  H     -0.879480   -1.303000    2.865760
  O      0.923410   -1.794470   -2.768350
  H      1.359750   -2.338250   -3.430940
  H      1.303000   -0.879480   -2.865760
  O     -1.752130   -0.741530   -2.896280
  H     -2.036450   -0.920500   -1.984040
  H     -0.921210   -1.242140   -2.984230
  O     -0.885520    1.737840    0.052730
  H     -1.032320    2.090180   -0.841890
  H     -1.284090    0.839590    0.017130
  O      1.737840    0.885520   -0.052730
  H      2.090180    1.032320    0.841890
  H      0.839590    1.284090   -0.017130
  O     -1.737840   -0.885520   -0.052730
  H     -2.090180   -1.032320    0.841890
  H     -0.839590   -1.284090   -0.017130
  O      1.752130    0.741530   -2.896280
  H      2.036450    0.920500   -1.984040
  H      0.921210    1.242140   -2.984230

 Total Charge           Charge          ....    0
 Multiplicity           Mult            ....    1
 Number of Electrons    NEL             ....   80
 Basis Dimension        Dim             ....  344

ORBITAL ENERGIES
----------------

  NO   OCC          E(Eh)            E(eV)
   0   2.0000     -20.609133      -560.8030
   1   2.0000     -20.593988      -560.3909
   2   2.0000     -20.582655      -560.0825
   3   2.0000     -20.559737      -559.4589
   4   2.0000     -20.555452      -559.3423
   5   2.0000     -20.526937      -558.5663
   6   2.0000     -20.526374      -558.5510
   7   2.0000     -20.500476      -557.8463
   8   2.0000      -1.388082       -37.7716
   9   2.0000      -1.371933       -37.3322
  10   2.0000      -1.369048       -37.2537
  11   2.0000      -1.346954       -36.6525
  12   2.0000      -1.343758       -36.5655
  13   2.0000      -1.311937       -35.6996
  14   2.0000      -1.308955       -35.6185
  15   2.0000      -1.285044       -34.9678
  16   2.0000      -0.754283       -20.5251
  17   2.0000      -0.738557       -20.0972
  18   2.0000      -0.731169       -19.8961
  19   2.0000      -0.713367       -19.4117
  20   2.0000      -0.707326       -19.2473
  21   2.0000      -0.693377       -18.8678
  22   2.0000      -0.689596       -18.7649
  23   2.0000      -0.664022       -18.0690
  24   2.0000      -0.631092       -17.1729
  25   2.0000      -0.617398       -16.8003
  26   2.0000      -0.607187       -16.5224
  27   2.0000      -0.594072       -16.1655
  28   2.0000      -0.589364       -16.0374
  29   2.0000      -0.565100       -15.3772
  30   2.0000      -0.554196       -15.0804
  31   2.0000      -0.548443       -14.9239
  32   2.0000      -0.530983       -14.4488
  33   2.0000      -0.525438       -14.2979
  34   2.0000      -0.515976       -14.0404
  35   2.0000      -0.500195       -13.6110
  36   2.0000      -0.493384       -13.4257
  37   2.0000      -0.478851       -13.0302
  38   2.0000      -0.473900       -12.8955
  39   2.0000      -0.450608       -12.2617
  40   0.0000       0.083453         2.2709
  41   0.0000       0.119547         3.2530
  42   0.0000       0.127536         3.4704
  43   0.0000       0.159696         4.3456
  44   0.0000       0.170433         4.6377

MULLIKEN ATOMIC CHARGES
-----------------------
   0 O :   -0.703761
   1 H :    0.351351
   2 H :    0.364507
   3 O :   -0.703535
   4 H :    0.358921
   5 H :    0.362059
   6 O :   -0.742683
   7 H :    0.333694
   8 H :    0.386094
   9 O :   -0.737594
  10 H :    0.360823
  11 H :    0.351427
  12 O :   -0.717676
  13 H :    0.347789
  14 H :    0.380583
  15 O :   -0.749530
  16 H :    0.368138
  17 H :    0.339632
  18 O :   -0.730422
  19 H :    0.385317
  20 H :    0.364761
  21 O :   -0.703303
  22 H :    0.391144
  23 H :    0.342263
Sum of atomic charges:   -0.0000000

LOEWDIN ATOMIC CHARGES
----------------------
   0 O :   -0.313748
   1 H :    0.163272
   2 H :    0.187843
   3 O :   -0.311459
   4 H :    0.166934
   5 H :    0.187859
   6 O :   -0.342936
   7 H :    0.152238
   8 H :    0.146631
   9 O :   -0.359726
  10 H :    0.144765
  11 H :    0.142706
  12 O :   -0.311296
  13 H :    0.165301
  14 H :    0.147146
  15 O :   -0.351237
  16 H :    0.148808
  17 H :    0.135864
  18 O :   -0.281597
  19 H :    0.155829
  20 H :    0.179785
  21 O :   -0.278958
  22 H :    0.159832
  23 H :    0.166144

  Mayer bond orders larger than 0.100000
B(  0-O ,  1-H ) :   0.8420 B(  0-O ,  2-H ) :   0.8259 B(  3-O ,  4-H ) :   0.8380
B(  3-O ,  5-H ) :   0.8275 B(  6-O ,  7-H ) :   0.8524 B(  6-O ,  8-H ) :   0.7525
B(  9-O , 10-H ) :   0.8318 B(  9-O , 11-H ) :   0.8112 B( 12-O , 13-H ) :   0.8425
B( 12-O , 14-H ) :   0.7715 B( 12-O , 17-H ) :   0.1031 B( 15-O , 16-H ) :   0.8178
B( 15-O , 17-H ) :   0.7786 B( 18-O , 19-H ) :   0.7948 B( 18-O , 20-H ) :   0.8214
B( 21-O , 22-H ) :   0.7882 B( 21-O , 23-H ) :   0.8428

MP2 TOTAL ENERGY:     -610.579296821 Eh
FINAL SINGLE POINT ENERGY      -610.579296821468

DIPOLE MOMENT
-------------
                                X             Y             Z
Electronic contribution:     -0.08714       0.06363       0.32053
Nuclear contribution   :      0.22520      -0.14541       2.77909
                        -----------------------------------------
Total Dipole Moment    :      0.13806      -0.08178       3.09962
                        -----------------------------------------
Magnitude (a.u.)       :      3.10377
Magnitude (Debye)      :      7.88915

Rotational constants in cm-1:     0.030993     0.019774     0.014794
Rotational constants in MHz :   929.140207   592.805036   443.515136

                             ****ORCA TERMINATED NORMALLY****
TOTAL RUN TIME: 0 days 0 hours 3 minutes 0 seconds 942 msec
