                         Program Version 4.2.0 -  RELEASE  -
|  1> # 12h2o.su.etal.mol0,2,3,4,5,6,7,8,10,11
|  2> ! MP2 def2-TZVP EnGrad TightSCF
|  3>
|  4> %pal
|  5>     nprocs 6
|  6> end
|  7>
|  8> %maxcore 8000
|  9>
| 10> %scf
| 11>     ConvForced true
| 12> end
| 13>
| 14> *xyz 0 1
| 15> O   1.794470000   0.923410000   2.768350000
| 16> H   2.338250000   1.359750000   3.430940000
| 17> H   0.879480000   1.303000000   2.865760000
| 18> O   0.923410000  -1.794470000  -2.768350000
| 19> H   1.359750000  -2.338250000  -3.430940000
| 20> H   1.303000000  -0.879480000  -2.865760000
| 21> O  -1.752130000  -0.741530000  -2.896280000
| 22> H  -2.036450000  -0.920500000  -1.984040000
| 23> H  -0.921210000  -1.242140000  -2.984230000
| 24> O  -0.885520000   1.737840000   0.052730000
| 25> H  -1.032320000   2.090180000  -0.841890000
| 26> H  -1.284090000   0.839590000   0.017130000
| 27> O   0.885520000  -1.737840000   0.052730000
| 28> H   1.284090000  -0.839590000   0.017130000
| 29> H   1.032320000  -2.090180000  -0.841890000
| 30> O   1.737840000   0.885520000  -0.052730000
| 31> H   2.090180000   1.032320000   0.841890000
| 32> H   0.839590000   1.284090000  -0.017130000
| 33> O  -1.737840000  -0.885520000  -0.052730000
| 34> H  -2.090180000  -1.032320000   0.841890000
| 35> H  -0.839590000  -1.284090000  -0.017130000
| 36> O   1.752130000   0.741530000  -2.896280000
| 37> H   2.036450000   0.920500000  -1.984040000
| 38> H   0.921210000   1.242140000  -2.984230000
| 39> O  -0.923410000   1.794470000  -2.768350000
| 40> H  -1.359750000   2.338250000  -3.430940000
| 41> H  -1.303000000   0.879480000  -2.865760000
| 42> O  -0.741530000   1.752130000   2.896280000
| 43> H  -0.920500000   2.036450000   1.984040000
| 44> H  -1.242140000   0.921210000   2.984230000
| 45> *
| 46>
| 47>                          ****END OF INPUT****

CARTESIAN COORDINATES (ANGSTROEM)
---------------------------------
  O      1.794470    0.923410    2.768350
  H      2.338250    1.359750    3.430940
  H      0.879480    1.303000    2.865760
  O      0.923410   -1.794470   -2.768350
  H      1.359750   -2.338250   -3.430940
  H      1.303000   -0.879480   -2.865760
  O     -1.752130   -0.741530   -2.896280
  H     -2.036450   -0.920500   -1.984040
  H     -0.921210   -1.242140   -2.984230
  O     -0.885520    1.737840    0.052730
  H     -1.032320    2.090180   -0.841890
  H     -1.284090    0.839590    0.017130
  O      0.885520   -1.737840    0.052730
  H      1.284090   -0.839590    0.017130
  H      1.032320   -2.090180   -0.841890
  O      1.737840    0.885520   -0.052730
  H      2.090180    1.032320    0.841890
  H      0.839590    1.284090   -0.017130
  O     -1.737840   -0.885520   -0.052730
  H     -2.090180   -1.032320    0.841890
  H     -0.839590   -1.284090   -0.017130
  O      1.752130    0.741530   -2.896280
  H      2.036450    0.920500   -1.984040
  H      0.921210    1.242140   -2.984230
  O     -0.923410    1.794470   -2.768350
  H     -1.359750    2.338250   -3.430940
  H     -1.303000    0.879480   -2.865760
  O     -0.741530    1.752130    2.896280
  H     -0.920500    2.036450    1.984040
  H     -1.242140    0.921210    2.984230

 Total Charge           Charge          ....    0
 Multiplicity           Mult            ....    1
 Number of Electrons    NEL             ....  100
 Basis Dimension        Dim             ....  430

ORBITAL ENERGIES
----------------

  NO   OCC          E(Eh)            E(eV)
   0   2.0000     -20.588888      -560.2521
   1   2.0000     -20.582777      -560.0858
   2   2.0000     -20.572498      -559.8061
   3   2.0000     -20.569278      -559.7185
   4   2.0000     -20.564386      -559.5854
   5   2.0000     -20.559713      -559.4582
   6   2.0000     -20.551160      -559.2255
   7   2.0000     -20.549091      -559.1692
   8   2.0000     -20.542712      -558.9956
   9   2.0000     -20.535658      -558.8037
  10   2.0000      -1.383835       -37.6561
  11   2.0000      -1.373488       -37.3745
  12   2.0000      -1.368258       -37.2322
  13   2.0000      -1.359308       -36.9887
  14   2.0000      -1.356805       -36.9206
  15   2.0000      -1.344514       -36.5861
  16   2.0000      -1.341863       -36.5140
  17   2.0000      -1.333596       -36.2890
  18   2.0000      -1.324715       -36.0473
  19   2.0000      -1.317097       -35.8400
  20   2.0000      -0.742661       -20.2088
  21   2.0000      -0.740842       -20.1593
  22   2.0000      -0.735773       -20.0214
  23   2.0000      -0.730401       -19.8752
  24   2.0000      -0.726316       -19.7641
  25   2.0000      -0.717264       -19.5178
  26   2.0000      -0.715598       -19.4724
  27   2.0000      -0.710013       -19.3204
  28   2.0000      -0.703657       -19.1475
  29   2.0000      -0.696367       -18.9491
  30   2.0000      -0.651305       -17.7229
  31   2.0000      -0.625597       -17.0234
  32   2.0000      -0.619156       -16.8481
  33   2.0000      -0.612941       -16.6790
  34   2.0000      -0.600252       -16.3337
  35   2.0000      -0.594441       -16.1756
  36   2.0000      -0.579364       -15.7653
  37   2.0000      -0.577109       -15.7039
  38   2.0000      -0.565679       -15.3929
  39   2.0000      -0.546504       -14.8711
  40   2.0000      -0.532387       -14.4870
  41   2.0000      -0.520843       -14.1729
  42   2.0000      -0.518777       -14.1166
  43   2.0000      -0.514584       -14.0026
  44   2.0000      -0.511242       -13.9116
  45   2.0000      -0.506092       -13.7715
  46   2.0000      -0.500013       -13.6060
  47   2.0000      -0.495029       -13.4704
  48   2.0000      -0.491805       -13.3827
  49   2.0000      -0.485632       -13.2147
  50   0.0000       0.093261         2.5378
  51   0.0000       0.127858         3.4792
  52   0.0000       0.145153         3.9498
  53   0.0000       0.151620         4.1258
  54   0.0000       0.186834         5.0840

MULLIKEN ATOMIC CHARGES
-----------------------
   0 O :   -0.737573
   1 H :    0.336861
   2 H :    0.374161
   3 O :   -0.762231
   4 H :    0.351284
   5 H :    0.385305
   6 O :   -0.723676
   7 H :    0.385859
   8 H :    0.372898
   9 O :   -0.758954
  10 H :    0.388510
  11 H :    0.355713
  12 O :   -0.733914
  13 H :    0.371976
  14 H :    0.373552
  15 O :   -0.764523
  16 H :    0.386942
  17 H :    0.360980
  18 O :   -0.743239
  19 H :    0.351523
  20 H :    0.377962
  21 O :   -0.726200
  22 H :    0.390431
  23 H :    0.368784
  24 O :   -0.762224
  25 H :    0.353255
  26 H :    0.386075
  27 O :   -0.692191
  28 H :    0.392265
  29 H :    0.340390
Sum of atomic charges:    0.0000000

LOEWDIN ATOMIC CHARGES
----------------------
   0 O :   -0.340079
   1 H :    0.154124
   2 H :    0.144673
   3 O :   -0.317691
   4 H :    0.159325
   5 H :    0.146569
   6 O :   -0.285317
   7 H :    0.156052
   8 H :    0.151099
   9 O :   -0.303697
  10 H :    0.154337
  11 H :    0.139489
  12 O :   -0.314804
  13 H :    0.141967
  14 H :    0.147537
  15 O :   -0.304727
  16 H :    0.154697
  17 H :    0.140150
  18 O :   -0.297960
  19 H :    0.166749
  20 H :    0.147893
  21 O :   -0.287549
  22 H :    0.156631
  23 H :    0.148986
  24 O :   -0.316823
  25 H :    0.160454
  26 H :    0.146597
  27 O :   -0.274630
  28 H :    0.158724
  29 H :    0.167226

  Mayer bond orders larger than 0.100000
B(  0-O ,  1-H ) :   0.8508 B(  0-O ,  2-H ) :   0.7604 B(  3-O ,  4-H ) :   0.8399
B(  3-O ,  5-H ) :   0.7230 B(  5-H , 21-O ) :   0.1259 B(  6-O ,  7-H ) :   0.8063
B(  6-O ,  8-H ) :   0.7924 B(  6-O , 26-H ) :   0.1262 B(  9-O , 10-H ) :   0.7903
B(  9-O , 11-H ) :   0.7658 B( 11-H , 18-O ) :   0.1002 B( 12-O , 13-H ) :   0.7712
B( 12-O , 14-H ) :   0.8058 B( 12-O , 20-H ) :   0.1435 B( 15-O , 16-H ) :   0.7865
B( 15-O , 17-H ) :   0.7669 B( 18-O , 19-H ) :   0.8391 B( 18-O , 20-H ) :   0.7265
B( 21-O , 22-H ) :   0.7959 B( 21-O , 23-H ) :   0.8003 B( 24-O , 25-H ) :   0.8391
B( 24-O , 26-H ) :   0.7234 B( 27-O , 28-H ) :   0.7933 B( 27-O , 29-H ) :   0.8467

MP2 TOTAL ENERGY:     -763.281730209 Eh
FINAL SINGLE POINT ENERGY      -763.281730209182

DIPOLE MOMENT
-------------
                                X             Y             Z
Electronic contribution:     -0.02362       0.03593      -0.03828
Nuclear contribution   :     -0.87464       0.22418       0.05351
                        -----------------------------------------
Total Dipole Moment    :     -0.89826       0.26011       0.01523
                        -----------------------------------------
Magnitude (a.u.)       :      0.93529
Magnitude (Debye)      :      2.37731

Rotational constants in cm-1:     0.026992     0.014755     0.013757
Rotational constants in MHz :   809.192976   442.331821   412.434660

                             ****ORCA TERMINATED NORMALLY****
TOTAL RUN TIME: 0 days 0 hours 8 minutes 28 seconds 626 msec
