                         Program Version 4.2.0 -  RELEASE  -
|  1> # 12mecn.remya.etal.2.mol3,9,11
|  2> ! MP2 def2-TZVP EnGrad TightSCF
|  3>
|  4> %pal
|  5>     nprocs 6
|  6> end
|  7>
|  8> %maxcore 8000
|  9>
| 10> %scf
| 11>     ConvForced true
| 12> end
| 13>
| 14> *xyz 0 1
| 15> C  -5.181310000   2.853865000  -1.626100000
| 16> H  -5.488260000   3.811434000  -2.053310000
| 17> H  -5.857590000   2.068112000  -1.968630000
| 18> H  -4.170750000   2.611402000  -1.966640000
| 19> C  -5.187260000   2.919160000  -0.181450000
| 20> N  -5.181700000   2.970641000   0.983640000
| 21> C   0.923766000   4.000693000  -1.575910000
| 22> H   0.011949000   4.478423000  -1.939550000
| 23> H   0.947903000   2.966558000  -1.929960000
| 24> H   1.805950000   4.519548000  -1.956520000
| 25> C   0.942834000   3.994846000  -0.131200000
| 26> N   0.960035000   3.982544000   1.035639000
| 27> C   4.214163000   3.378139000   1.593627000
| 28> H   3.242643000   3.657109000   2.012358000
| 29> H   4.969258000   4.086643000   1.941290000
| 30> H   4.482966000   2.372549000   1.931698000
| 31> C   4.130759000   3.388436000   0.150192000
| 32> N   4.050180000   3.381449000  -1.013420000
| 33> *
| 34>
| 35>                          ****END OF INPUT****

CARTESIAN COORDINATES (ANGSTROEM)
---------------------------------
  C     -5.181310    2.853865   -1.626100
  H     -5.488260    3.811434   -2.053310
  H     -5.857590    2.068112   -1.968630
  H     -4.170750    2.611402   -1.966640
  C     -5.187260    2.919160   -0.181450
  N     -5.181700    2.970641    0.983640
  C      0.923766    4.000693   -1.575910
  H      0.011949    4.478423   -1.939550
  H      0.947903    2.966558   -1.929960
  H      1.805950    4.519548   -1.956520
  C      0.942834    3.994846   -0.131200
  N      0.960035    3.982544    1.035639
  C      4.214163    3.378139    1.593627
  H      3.242643    3.657109    2.012358
  H      4.969258    4.086643    1.941290
  H      4.482966    2.372549    1.931698
  C      4.130759    3.388436    0.150192
  N      4.050180    3.381449   -1.013420

 Total Charge           Charge          ....    0
 Multiplicity           Mult            ....    1
 Number of Electrons    NEL             ....   66
 Basis Dimension        Dim             ....  333

ORBITAL ENERGIES
----------------

  NO   OCC          E(Eh)            E(eV)
   0   2.0000     -15.573260      -423.7700
   1   2.0000     -15.571302      -423.7167
   2   2.0000     -15.570582      -423.6971
   3   2.0000     -11.286351      -307.1172
   4   2.0000     -11.283174      -307.0308
   5   2.0000     -11.282244      -307.0055
   6   2.0000     -11.279820      -306.9395
   7   2.0000     -11.273802      -306.7758
   8   2.0000     -11.271773      -306.7205
   9   2.0000      -1.218175       -33.1482
  10   2.0000      -1.214616       -33.0514
  11   2.0000      -1.213384       -33.0178
  12   2.0000      -1.044813       -28.4308
  13   2.0000      -1.037267       -28.2255
  14   2.0000      -1.033894       -28.1337
  15   2.0000      -0.702116       -19.1055
  16   2.0000      -0.695701       -18.9310
  17   2.0000      -0.691488       -18.8163
  18   2.0000      -0.633774       -17.2459
  19   2.0000      -0.632173       -17.2023
  20   2.0000      -0.631599       -17.1867
  21   2.0000      -0.622832       -16.9481
  22   2.0000      -0.620012       -16.8714
  23   2.0000      -0.616117       -16.7654
  24   2.0000      -0.559128       -15.2146
  25   2.0000      -0.555650       -15.1200
  26   2.0000      -0.555619       -15.1192
  27   2.0000      -0.462603       -12.5881
  28   2.0000      -0.458841       -12.4857
  29   2.0000      -0.458021       -12.4634
  30   2.0000      -0.457485       -12.4488
  31   2.0000      -0.456840       -12.4313
  32   2.0000      -0.453142       -12.3306
  33   0.0000       0.108246         2.9455
  34   0.0000       0.128941         3.5087
  35   0.0000       0.143374         3.9014
  36   0.0000       0.168356         4.5812
  37   0.0000       0.170429         4.6376

MULLIKEN ATOMIC CHARGES
-----------------------
   0 C :   -0.281252
   1 H :    0.172476
   2 H :    0.172904
   3 H :    0.168177
   4 C :   -0.145348
   5 N :   -0.086953
   6 C :   -0.269979
   7 H :    0.166202
   8 H :    0.169383
   9 H :    0.191697
  10 C :   -0.111886
  11 N :   -0.145101
  12 C :   -0.287543
  13 H :    0.206716
  14 H :    0.166701
  15 H :    0.166641
  16 C :   -0.109210
  17 N :   -0.143625
Sum of atomic charges:    0.0000000

LOEWDIN ATOMIC CHARGES
----------------------
   0 C :   -0.284692
   1 H :    0.151197
   2 H :    0.151678
   3 H :    0.151722
   4 C :   -0.219463
   5 N :    0.049558
   6 C :   -0.285078
   7 H :    0.147304
   8 H :    0.155816
   9 H :    0.156567
  10 C :   -0.209796
  11 N :    0.032537
  12 C :   -0.282109
  13 H :    0.157647
  14 H :    0.150115
  15 H :    0.152943
  16 C :   -0.208484
  17 N :    0.032539

  Mayer bond orders larger than 0.100000
B(  0-C ,  1-H ) :   0.9166 B(  0-C ,  2-H ) :   0.9168 B(  0-C ,  3-H ) :   0.9180
B(  0-C ,  4-C ) :   0.9023 B(  4-C ,  5-N ) :   2.8344 B(  6-C ,  7-H ) :   0.9138
B(  6-C ,  8-H ) :   0.9158 B(  6-C ,  9-H ) :   0.9074 B(  6-C , 10-C ) :   0.9078
B( 10-C , 11-N ) :   2.7693 B( 12-C , 13-H ) :   0.9017 B( 12-C , 14-H ) :   0.9161
B( 12-C , 15-H ) :   0.9146 B( 12-C , 16-C ) :   0.9007 B( 16-C , 17-N ) :   2.7861

MP2 TOTAL ENERGY:     -397.458432768 Eh
FINAL SINGLE POINT ENERGY      -397.458432768459

DIPOLE MOMENT
-------------
                                X             Y             Z
Electronic contribution:     -0.17035       0.19766       3.16827
Nuclear contribution   :      0.24503      -0.26482      -4.65335
                        -----------------------------------------
Total Dipole Moment    :      0.07468      -0.06716      -1.48509
                        -----------------------------------------
Magnitude (a.u.)       :      1.48848
Magnitude (Debye)      :      3.78342

Rotational constants in cm-1:     0.092552     0.008954     0.008328
Rotational constants in MHz :  2774.635406   268.436182   249.675673

                             ****ORCA TERMINATED NORMALLY****
TOTAL RUN TIME: 0 days 0 hours 2 minutes 50 seconds 362 msec
