                         Program Version 4.2.0 -  RELEASE  -
|  1> # 12h2o.su.etal.mol0,2,4,8,9
|  2> ! MP2 def2-TZVP EnGrad TightSCF
|  3>
|  4> %pal
|  5>     nprocs 6
|  6> end
|  7>
|  8> %maxcore 8000
|  9>
| 10> %scf
| 11>     ConvForced true
| 12> end
| 13>
| 14> *xyz 0 1
| 15> O   1.794470000   0.923410000   2.768350000
| 16> H   2.338250000   1.359750000   3.430940000
| 17> H   0.879480000   1.303000000   2.865760000
| 18> O   0.923410000  -1.794470000  -2.768350000
| 19> H   1.359750000  -2.338250000  -3.430940000
| 20> H   1.303000000  -0.879480000  -2.865760000
| 21> O  -0.885520000   1.737840000   0.052730000
| 22> H  -1.032320000   2.090180000  -0.841890000
| 23> H  -1.284090000   0.839590000   0.017130000
| 24> O   1.752130000   0.741530000  -2.896280000
| 25> H   2.036450000   0.920500000  -1.984040000
| 26> H   0.921210000   1.242140000  -2.984230000
| 27> O   0.741530000  -1.752130000   2.896280000
| 28> H   0.920500000  -2.036450000   1.984040000
| 29> H   1.242140000  -0.921210000   2.984230000
| 30> *
| 31>
| 32>                          ****END OF INPUT****

CARTESIAN COORDINATES (ANGSTROEM)
---------------------------------
  O      1.794470    0.923410    2.768350
  H      2.338250    1.359750    3.430940
  H      0.879480    1.303000    2.865760
  O      0.923410   -1.794470   -2.768350
  H      1.359750   -2.338250   -3.430940
  H      1.303000   -0.879480   -2.865760
  O     -0.885520    1.737840    0.052730
  H     -1.032320    2.090180   -0.841890
  H     -1.284090    0.839590    0.017130
  O      1.752130    0.741530   -2.896280
  H      2.036450    0.920500   -1.984040
  H      0.921210    1.242140   -2.984230
  O      0.741530   -1.752130    2.896280
  H      0.920500   -2.036450    1.984040
  H      1.242140   -0.921210    2.984230

 Total Charge           Charge          ....    0
 Multiplicity           Mult            ....    1
 Number of Electrons    NEL             ....   50
 Basis Dimension        Dim             ....  215

ORBITAL ENERGIES
----------------

  NO   OCC          E(Eh)            E(eV)
   0   2.0000     -20.601809      -560.6037
   1   2.0000     -20.584092      -560.1216
   2   2.0000     -20.580642      -560.0278
   3   2.0000     -20.525730      -558.5335
   4   2.0000     -20.521957      -558.4308
   5   2.0000      -1.387034       -37.7431
   6   2.0000      -1.361787       -37.0561
   7   2.0000      -1.356443       -36.9107
   8   2.0000      -1.308167       -35.5970
   9   2.0000      -1.304352       -35.4932
  10   2.0000      -0.744583       -20.2611
  11   2.0000      -0.728831       -19.8325
  12   2.0000      -0.718408       -19.5489
  13   2.0000      -0.695459       -18.9244
  14   2.0000      -0.677511       -18.4360
  15   2.0000      -0.621889       -16.9225
  16   2.0000      -0.601162       -16.3584
  17   2.0000      -0.596220       -16.2240
  18   2.0000      -0.562360       -15.3026
  19   2.0000      -0.551608       -15.0100
  20   2.0000      -0.523398       -14.2424
  21   2.0000      -0.519860       -14.1461
  22   2.0000      -0.518739       -14.1156
  23   2.0000      -0.473525       -12.8853
  24   2.0000      -0.472349       -12.8533
  25   0.0000       0.080676         2.1953
  26   0.0000       0.117906         3.2084
  27   0.0000       0.147422         4.0116
  28   0.0000       0.155118         4.2210
  29   0.0000       0.177007         4.8166

MULLIKEN ATOMIC CHARGES
-----------------------
   0 O :   -0.697620
   1 H :    0.350005
   2 H :    0.367195
   3 O :   -0.733683
   4 H :    0.327449
   5 H :    0.363420
   6 O :   -0.679995
   7 H :    0.330064
   8 H :    0.353518
   9 O :   -0.675285
  10 H :    0.366325
  11 H :    0.349236
  12 O :   -0.709228
  13 H :    0.333391
  14 H :    0.355209
Sum of atomic charges:   -0.0000000

LOEWDIN ATOMIC CHARGES
----------------------
   0 O :   -0.311591
   1 H :    0.162426
   2 H :    0.190265
   3 O :   -0.373186
   4 H :    0.149559
   5 H :    0.141131
   6 O :   -0.336898
   7 H :    0.161260
   8 H :    0.179094
   9 O :   -0.268835
  10 H :    0.177681
  11 H :    0.171488
  12 O :   -0.350421
  13 H :    0.161895
  14 H :    0.146131

  Mayer bond orders larger than 0.100000
B(  0-O ,  1-H ) :   0.8429 B(  0-O ,  2-H ) :   0.8250 B(  3-O ,  4-H ) :   0.8596
B(  3-O ,  5-H ) :   0.7896 B(  6-O ,  7-H ) :   0.8560 B(  6-O ,  8-H ) :   0.8403
B(  9-O , 10-H ) :   0.8312 B(  9-O , 11-H ) :   0.8412 B( 12-O , 13-H ) :   0.8557
B( 12-O , 14-H ) :   0.8195

MP2 TOTAL ENERGY:     -381.582845609 Eh
FINAL SINGLE POINT ENERGY      -381.582845609046

DIPOLE MOMENT
-------------
                                X             Y             Z
Electronic contribution:      0.13332       0.23712       0.15151
Nuclear contribution   :      0.02691       1.55436      -0.77428
                        -----------------------------------------
Total Dipole Moment    :      0.16023       1.79148      -0.62277
                        -----------------------------------------
Magnitude (a.u.)       :      1.90339
Magnitude (Debye)      :      4.83804

Rotational constants in cm-1:     0.059877     0.025444     0.021583
Rotational constants in MHz :  1795.059385   762.779037   647.050837

                             ****ORCA TERMINATED NORMALLY****
TOTAL RUN TIME: 0 days 0 hours 0 minutes 46 seconds 850 msec
