                         Program Version 4.2.0 -  RELEASE  -
|  1> # 12meoh.boyd.etal.mol1,5,10
|  2> ! MP2 def2-TZVP EnGrad TightSCF
|  3>
|  4> %pal
|  5>     nprocs 6
|  6> end
|  7>
|  8> %maxcore 8000
|  9>
| 10> %scf
| 11>     ConvForced true
| 12> end
| 13>
| 14> *xyz 0 1
| 15> O   0.666045193  -2.600503172   0.138317521
| 16> H  -0.227115049  -2.712051982  -0.281868004
| 17> C   0.490021232  -1.851247678   1.341189459
| 18> H   1.466500502  -1.466176022   1.645844415
| 19> H   0.097564527  -2.488364683   2.146902740
| 20> H  -0.187588112  -1.000787499   1.200739571
| 21> O  -0.662721750   1.449094618  -1.383082065
| 22> H   0.064188300   2.119867608  -1.465650660
| 23> C  -0.353319239   0.341218776  -2.229326771
| 24> H  -1.072358530  -0.454743281  -2.019906495
| 25> H   0.657636746  -0.044472139  -2.042736771
| 26> H  -0.434616607   0.624733901  -3.287793021
| 27> O  -5.201143618   0.064582726  -0.172223772
| 28> H  -4.686891530   0.869258890   0.107806143
| 29> C  -6.513192168   0.171391798   0.359883449
| 30> H  -7.049381312  -0.749234190   0.111361174
| 31> H  -7.057741163   1.017801101  -0.081819420
| 32> H  -6.514770575   0.292264928   1.453058834
| 33> *
| 34>
| 35>                          ****END OF INPUT****

CARTESIAN COORDINATES (ANGSTROEM)
---------------------------------
  O      0.666045   -2.600503    0.138318
  H     -0.227115   -2.712052   -0.281868
  C      0.490021   -1.851248    1.341189
  H      1.466501   -1.466176    1.645844
  H      0.097565   -2.488365    2.146903
  H     -0.187588   -1.000787    1.200740
  O     -0.662722    1.449095   -1.383082
  H      0.064188    2.119868   -1.465651
  C     -0.353319    0.341219   -2.229327
  H     -1.072359   -0.454743   -2.019906
  H      0.657637   -0.044472   -2.042737
  H     -0.434617    0.624734   -3.287793
  O     -5.201144    0.064583   -0.172224
  H     -4.686892    0.869259    0.107806
  C     -6.513192    0.171392    0.359883
  H     -7.049381   -0.749234    0.111361
  H     -7.057741    1.017801   -0.081819
  H     -6.514771    0.292265    1.453059

 Total Charge           Charge          ....    0
 Multiplicity           Mult            ....    1
 Number of Electrons    NEL             ....   54
 Basis Dimension        Dim             ....  258

ORBITAL ENERGIES
----------------

  NO   OCC          E(Eh)            E(eV)
   0   2.0000     -20.557649      -559.4021
   1   2.0000     -20.555295      -559.3380
   2   2.0000     -20.554179      -559.3076
   3   2.0000     -11.270046      -306.6736
   4   2.0000     -11.270015      -306.6727
   5   2.0000     -11.266701      -306.5825
   6   2.0000      -1.345712       -36.6187
   7   2.0000      -1.345473       -36.6122
   8   2.0000      -1.342009       -36.5179
   9   2.0000      -0.918798       -25.0018
  10   2.0000      -0.917641       -24.9703
  11   2.0000      -0.915367       -24.9084
  12   2.0000      -0.680655       -18.5216
  13   2.0000      -0.680253       -18.5106
  14   2.0000      -0.677014       -18.4225
  15   2.0000      -0.617639       -16.8068
  16   2.0000      -0.615193       -16.7402
  17   2.0000      -0.610137       -16.6027
  18   2.0000      -0.590545       -16.0696
  19   2.0000      -0.589661       -16.0455
  20   2.0000      -0.586339       -15.9551
  21   2.0000      -0.500465       -13.6183
  22   2.0000      -0.498206       -13.5569
  23   2.0000      -0.496727       -13.5166
  24   2.0000      -0.450604       -12.2616
  25   2.0000      -0.446682       -12.1548
  26   2.0000      -0.443966       -12.0809
  27   0.0000       0.119215         3.2440
  28   0.0000       0.140803         3.8315
  29   0.0000       0.145674         3.9640
  30   0.0000       0.174812         4.7569
  31   0.0000       0.177750         4.8368

MULLIKEN ATOMIC CHARGES
-----------------------
   0 O :   -0.501744
   1 H :    0.323223
   2 C :   -0.184759
   3 H :    0.124584
   4 H :    0.113749
   5 H :    0.128195
   6 O :   -0.508653
   7 H :    0.322851
   8 C :   -0.180181
   9 H :    0.119593
  10 H :    0.129270
  11 H :    0.114035
  12 O :   -0.499541
  13 H :    0.327202
  14 C :   -0.172602
  15 H :    0.127367
  16 H :    0.109042
  17 H :    0.108369
Sum of atomic charges:   -0.0000000

LOEWDIN ATOMIC CHARGES
----------------------
   0 O :   -0.111738
   1 H :    0.189109
   2 C :   -0.378608
   3 H :    0.108169
   4 H :    0.096506
   5 H :    0.099419
   6 O :   -0.116159
   7 H :    0.189087
   8 C :   -0.379196
   9 H :    0.107244
  10 H :    0.099694
  11 H :    0.096551
  12 O :   -0.107775
  13 H :    0.193402
  14 C :   -0.385632
  15 H :    0.109704
  16 H :    0.095183
  17 H :    0.095038

  Mayer bond orders larger than 0.100000
B(  0-O ,  1-H ) :   0.8422 B(  0-O ,  2-C ) :   0.9165 B(  2-C ,  3-H ) :   0.9388
B(  2-C ,  4-H ) :   0.9388 B(  2-C ,  5-H ) :   0.9383 B(  6-O ,  7-H ) :   0.8420
B(  6-O ,  8-C ) :   0.9095 B(  8-C ,  9-H ) :   0.9400 B(  8-C , 10-H ) :   0.9389
B(  8-C , 11-H ) :   0.9358 B( 12-O , 13-H ) :   0.8383 B( 12-O , 14-C ) :   0.9297
B( 14-C , 15-H ) :   0.9379 B( 14-C , 16-H ) :   0.9391 B( 14-C , 17-H ) :   0.9385

MP2 TOTAL ENERGY:     -346.522892690 Eh
FINAL SINGLE POINT ENERGY      -346.522892689849

DIPOLE MOMENT
-------------
                                X             Y             Z
Electronic contribution:      1.50356       0.10547      -1.11769
Nuclear contribution   :     -1.73969       0.64693       1.32999
                        -----------------------------------------
Total Dipole Moment    :     -0.23614       0.75240       0.21230
                        -----------------------------------------
Magnitude (a.u.)       :      0.81666
Magnitude (Debye)      :      2.07578

Rotational constants in cm-1:     0.057894     0.019821     0.015767
Rotational constants in MHz :  1735.626836   594.230785   472.697022

                             ****ORCA TERMINATED NORMALLY****
TOTAL RUN TIME: 0 days 0 hours 1 minutes 1 seconds 493 msec
