                         Program Version 4.2.0 -  RELEASE  -
|  1> # 12mecn.remya.etal.2.mol4,7,10
|  2> ! MP2 def2-TZVP EnGrad TightSCF
|  3>
|  4> %pal
|  5>     nprocs 6
|  6> end
|  7>
|  8> %maxcore 8000
|  9>
| 10> %scf
| 11>     ConvForced true
| 12> end
| 13>
| 14> *xyz 0 1
| 15> C  -1.509690000  -0.693960000  -1.610140000
| 16> H  -1.327010000  -1.692700000  -2.017370000
| 17> H  -0.742170000  -0.000650000  -1.964400000
| 18> H  -2.491920000  -0.334310000  -1.929350000
| 19> C  -1.473570000  -0.748120000  -0.167200000
| 20> N  -1.447490000  -0.793720000   0.998938000
| 21> C   1.502241000   0.651296000   1.710523000
| 22> H   1.309219000   1.637164000   2.143202000
| 23> H   2.493408000   0.297996000   2.009069000
| 24> H   0.746597000  -0.059850000   2.055508000
| 25> C   1.447974000   0.738517000   0.269805000
| 26> N   1.405612000   0.808047000  -0.894380000
| 27> C   4.602033000   0.321019000  -1.784800000
| 28> H   4.827650000  -0.662160000  -2.207910000
| 29> H   5.320558000   1.057980000  -2.148500000
| 30> H   3.601982000   0.643751000  -2.087520000
| 31> C   4.654967000   0.244048000  -0.343060000
| 32> N   4.691648000   0.166590000   0.820757000
| 33> *
| 34>
| 35>                          ****END OF INPUT****

CARTESIAN COORDINATES (ANGSTROEM)
---------------------------------
  C     -1.509690   -0.693960   -1.610140
  H     -1.327010   -1.692700   -2.017370
  H     -0.742170   -0.000650   -1.964400
  H     -2.491920   -0.334310   -1.929350
  C     -1.473570   -0.748120   -0.167200
  N     -1.447490   -0.793720    0.998938
  C      1.502241    0.651296    1.710523
  H      1.309219    1.637164    2.143202
  H      2.493408    0.297996    2.009069
  H      0.746597   -0.059850    2.055508
  C      1.447974    0.738517    0.269805
  N      1.405612    0.808047   -0.894380
  C      4.602033    0.321019   -1.784800
  H      4.827650   -0.662160   -2.207910
  H      5.320558    1.057980   -2.148500
  H      3.601982    0.643751   -2.087520
  C      4.654967    0.244048   -0.343060
  N      4.691648    0.166590    0.820757

 Total Charge           Charge          ....    0
 Multiplicity           Mult            ....    1
 Number of Electrons    NEL             ....   66
 Basis Dimension        Dim             ....  333

ORBITAL ENERGIES
----------------

  NO   OCC          E(Eh)            E(eV)
   0   2.0000     -15.570656      -423.6991
   1   2.0000     -15.570408      -423.6923
   2   2.0000     -15.568549      -423.6418
   3   2.0000     -11.285169      -307.0851
   4   2.0000     -11.282129      -307.0023
   5   2.0000     -11.281744      -306.9919
   6   2.0000     -11.273336      -306.7631
   7   2.0000     -11.273003      -306.7540
   8   2.0000     -11.258913      -306.3706
   9   2.0000      -1.218976       -33.1700
  10   2.0000      -1.214897       -33.0590
  11   2.0000      -1.212718       -32.9997
  12   2.0000      -1.036565       -28.2064
  13   2.0000      -1.036259       -28.1980
  14   2.0000      -1.026169       -27.9235
  15   2.0000      -0.694148       -18.8887
  16   2.0000      -0.692777       -18.8514
  17   2.0000      -0.683385       -18.5959
  18   2.0000      -0.630219       -17.1491
  19   2.0000      -0.625669       -17.0253
  20   2.0000      -0.624930       -17.0052
  21   2.0000      -0.624178       -16.9847
  22   2.0000      -0.612677       -16.6718
  23   2.0000      -0.606656       -16.5080
  24   2.0000      -0.560548       -15.2533
  25   2.0000      -0.555388       -15.1129
  26   2.0000      -0.554719       -15.0947
  27   2.0000      -0.460084       -12.5195
  28   2.0000      -0.459100       -12.4927
  29   2.0000      -0.457757       -12.4562
  30   2.0000      -0.457352       -12.4452
  31   2.0000      -0.455626       -12.3982
  32   2.0000      -0.452910       -12.3243
  33   0.0000       0.126664         3.4467
  34   0.0000       0.136937         3.7262
  35   0.0000       0.155990         4.2447
  36   0.0000       0.170235         4.6323
  37   0.0000       0.173105         4.7104

MULLIKEN ATOMIC CHARGES
-----------------------
   0 C :   -0.284452
   1 H :    0.166260
   2 H :    0.199957
   3 H :    0.167478
   4 C :   -0.105916
   5 N :   -0.143891
   6 C :   -0.287064
   7 H :    0.161176
   8 H :    0.201644
   9 H :    0.198445
  10 C :   -0.049212
  11 N :   -0.223979
  12 C :   -0.286108
  13 H :    0.166091
  14 H :    0.166988
  15 H :    0.201062
  16 C :   -0.102647
  17 N :   -0.145831
Sum of atomic charges:   -0.0000000

LOEWDIN ATOMIC CHARGES
----------------------
   0 C :   -0.283260
   1 H :    0.152493
   2 H :    0.155483
   3 H :    0.151445
   4 C :   -0.210063
   5 N :    0.033001
   6 C :   -0.279831
   7 H :    0.153243
   8 H :    0.156212
   9 H :    0.156345
  10 C :   -0.197788
  11 N :    0.013181
  12 C :   -0.283230
  13 H :    0.152321
  14 H :    0.150332
  15 H :    0.155773
  16 C :   -0.208691
  17 N :    0.033035

  Mayer bond orders larger than 0.100000
B(  0-C ,  1-H ) :   0.9149 B(  0-C ,  2-H ) :   0.9041 B(  0-C ,  3-H ) :   0.9165
B(  0-C ,  4-C ) :   0.9010 B(  4-C ,  5-N ) :   2.7761 B(  6-C ,  7-H ) :   0.9103
B(  6-C ,  8-H ) :   0.9026 B(  6-C ,  9-H ) :   0.9034 B(  6-C , 10-C ) :   0.9005
B( 10-C , 11-N ) :   2.6926 B( 12-C , 13-H ) :   0.9147 B( 12-C , 14-H ) :   0.9166
B( 12-C , 15-H ) :   0.9035 B( 12-C , 16-C ) :   0.9020 B( 16-C , 17-N ) :   2.7720

MP2 TOTAL ENERGY:     -397.467844464 Eh
FINAL SINGLE POINT ENERGY      -397.467844464173

DIPOLE MOMENT
-------------
                                X             Y             Z
Electronic contribution:      0.08961      -0.11103       3.16372
Nuclear contribution   :     -0.12098       0.17476      -4.63865
                        -----------------------------------------
Total Dipole Moment    :     -0.03137       0.06374      -1.47493
                        -----------------------------------------
Magnitude (a.u.)       :      1.47664
Magnitude (Debye)      :      3.75331

Rotational constants in cm-1:     0.080416     0.020401     0.017294
Rotational constants in MHz :  2410.818029   611.599887   518.470302

                             ****ORCA TERMINATED NORMALLY****
TOTAL RUN TIME: 0 days 0 hours 4 minutes 2 seconds 729 msec
