                         Program Version 4.2.0 -  RELEASE  -
|  1> # 12h2o.su.etal.mol0,1,2,3,5,6,8,9,11
|  2> ! MP2 def2-TZVP EnGrad TightSCF
|  3>
|  4> %pal
|  5>     nprocs 6
|  6> end
|  7>
|  8> %maxcore 8000
|  9>
| 10> %scf
| 11>     ConvForced true
| 12> end
| 13>
| 14> *xyz 0 1
| 15> O   1.794470000   0.923410000   2.768350000
| 16> H   2.338250000   1.359750000   3.430940000
| 17> H   0.879480000   1.303000000   2.865760000
| 18> O  -1.794470000  -0.923410000   2.768350000
| 19> H  -2.338250000  -1.359750000   3.430940000
| 20> H  -0.879480000  -1.303000000   2.865760000
| 21> O   0.923410000  -1.794470000  -2.768350000
| 22> H   1.359750000  -2.338250000  -3.430940000
| 23> H   1.303000000  -0.879480000  -2.865760000
| 24> O  -1.752130000  -0.741530000  -2.896280000
| 25> H  -2.036450000  -0.920500000  -1.984040000
| 26> H  -0.921210000  -1.242140000  -2.984230000
| 27> O   0.885520000  -1.737840000   0.052730000
| 28> H   1.284090000  -0.839590000   0.017130000
| 29> H   1.032320000  -2.090180000  -0.841890000
| 30> O   1.737840000   0.885520000  -0.052730000
| 31> H   2.090180000   1.032320000   0.841890000
| 32> H   0.839590000   1.284090000  -0.017130000
| 33> O   1.752130000   0.741530000  -2.896280000
| 34> H   2.036450000   0.920500000  -1.984040000
| 35> H   0.921210000   1.242140000  -2.984230000
| 36> O   0.741530000  -1.752130000   2.896280000
| 37> H   0.920500000  -2.036450000   1.984040000
| 38> H   1.242140000  -0.921210000   2.984230000
| 39> O  -0.741530000   1.752130000   2.896280000
| 40> H  -0.920500000   2.036450000   1.984040000
| 41> H  -1.242140000   0.921210000   2.984230000
| 42> *
| 43>
| 44>                          ****END OF INPUT****

CARTESIAN COORDINATES (ANGSTROEM)
---------------------------------
  O      1.794470    0.923410    2.768350
  H      2.338250    1.359750    3.430940
  H      0.879480    1.303000    2.865760
  O     -1.794470   -0.923410    2.768350
  H     -2.338250   -1.359750    3.430940
  H     -0.879480   -1.303000    2.865760
  O      0.923410   -1.794470   -2.768350
  H      1.359750   -2.338250   -3.430940
  H      1.303000   -0.879480   -2.865760
  O     -1.752130   -0.741530   -2.896280
  H     -2.036450   -0.920500   -1.984040
  H     -0.921210   -1.242140   -2.984230
  O      0.885520   -1.737840    0.052730
  H      1.284090   -0.839590    0.017130
  H      1.032320   -2.090180   -0.841890
  O      1.737840    0.885520   -0.052730
  H      2.090180    1.032320    0.841890
  H      0.839590    1.284090   -0.017130
  O      1.752130    0.741530   -2.896280
  H      2.036450    0.920500   -1.984040
  H      0.921210    1.242140   -2.984230
  O      0.741530   -1.752130    2.896280
  H      0.920500   -2.036450    1.984040
  H      1.242140   -0.921210    2.984230
  O     -0.741530    1.752130    2.896280
  H     -0.920500    2.036450    1.984040
  H     -1.242140    0.921210    2.984230

 Total Charge           Charge          ....    0
 Multiplicity           Mult            ....    1
 Number of Electrons    NEL             ....   90
 Basis Dimension        Dim             ....  387

ORBITAL ENERGIES
----------------

  NO   OCC          E(Eh)            E(eV)
   0   2.0000     -20.606802      -560.7396
   1   2.0000     -20.589432      -560.2669
   2   2.0000     -20.587159      -560.2051
   3   2.0000     -20.585482      -560.1594
   4   2.0000     -20.562945      -559.5462
   5   2.0000     -20.542573      -558.9918
   6   2.0000     -20.542351      -558.9858
   7   2.0000     -20.530092      -558.6522
   8   2.0000     -20.529676      -558.6409
   9   2.0000      -1.396447       -37.9992
  10   2.0000      -1.384420       -37.6720
  11   2.0000      -1.376227       -37.4491
  12   2.0000      -1.364477       -37.1293
  13   2.0000      -1.348412       -36.6921
  14   2.0000      -1.340649       -36.4809
  15   2.0000      -1.320758       -35.9396
  16   2.0000      -1.313279       -35.7361
  17   2.0000      -1.311826       -35.6966
  18   2.0000      -0.759298       -20.6616
  19   2.0000      -0.749681       -20.3999
  20   2.0000      -0.739680       -20.1277
  21   2.0000      -0.734599       -19.9895
  22   2.0000      -0.729983       -19.8638
  23   2.0000      -0.705353       -19.1936
  24   2.0000      -0.704347       -19.1662
  25   2.0000      -0.694470       -18.8975
  26   2.0000      -0.681628       -18.5481
  27   2.0000      -0.654553       -17.8113
  28   2.0000      -0.634327       -17.2609
  29   2.0000      -0.614231       -16.7141
  30   2.0000      -0.603577       -16.4242
  31   2.0000      -0.598290       -16.2803
  32   2.0000      -0.589848       -16.0506
  33   2.0000      -0.573599       -15.6084
  34   2.0000      -0.556255       -15.1365
  35   2.0000      -0.549370       -14.9491
  36   2.0000      -0.532533       -14.4910
  37   2.0000      -0.531638       -14.4666
  38   2.0000      -0.529797       -14.4165
  39   2.0000      -0.524606       -14.2753
  40   2.0000      -0.506459       -13.7815
  41   2.0000      -0.493662       -13.4332
  42   2.0000      -0.488974       -13.3057
  43   2.0000      -0.480548       -13.0764
  44   2.0000      -0.477741       -13.0000
  45   0.0000       0.078599         2.1388
  46   0.0000       0.124909         3.3989
  47   0.0000       0.136075         3.7028
  48   0.0000       0.151119         4.1122
  49   0.0000       0.162491         4.4216

MULLIKEN ATOMIC CHARGES
-----------------------
   0 O :   -0.760153
   1 H :    0.357457
   2 H :    0.382775
   3 O :   -0.747930
   4 H :    0.339846
   5 H :    0.386210
   6 O :   -0.750344
   7 H :    0.348230
   8 H :    0.385089
   9 O :   -0.719141
  10 H :    0.335775
  11 H :    0.361947
  12 O :   -0.746334
  13 H :    0.344536
  14 H :    0.370702
  15 O :   -0.723426
  16 H :    0.395882
  17 H :    0.341845
  18 O :   -0.700063
  19 H :    0.389366
  20 H :    0.356326
  21 O :   -0.726258
  22 H :    0.391077
  23 H :    0.360650
  24 O :   -0.702812
  25 H :    0.342502
  26 H :    0.386247
Sum of atomic charges:   -0.0000000

LOEWDIN ATOMIC CHARGES
----------------------
   0 O :   -0.315283
   1 H :    0.162504
   2 H :    0.145662
   3 O :   -0.342570
   4 H :    0.155110
   5 H :    0.146205
   6 O :   -0.312944
   7 H :    0.158310
   8 H :    0.146740
   9 O :   -0.352432
  10 H :    0.161998
  11 H :    0.146258
  12 O :   -0.347288
  13 H :    0.136949
  14 H :    0.148947
  15 O :   -0.284016
  16 H :    0.159146
  17 H :    0.170867
  18 O :   -0.273583
  19 H :    0.158206
  20 H :    0.173313
  21 O :   -0.289699
  22 H :    0.158588
  23 H :    0.145835
  24 O :   -0.279232
  25 H :    0.164606
  26 H :    0.157802

  Mayer bond orders larger than 0.100000
B(  0-O ,  1-H ) :   0.8370 B(  0-O ,  2-H ) :   0.7317 B(  2-H , 24-O ) :   0.1163
B(  3-O ,  4-H ) :   0.8488 B(  3-O ,  5-H ) :   0.7373 B(  5-H , 21-O ) :   0.1175
B(  6-O ,  7-H ) :   0.8416 B(  6-O ,  8-H ) :   0.7435 B(  9-O , 10-H ) :   0.8528
B(  9-O , 11-H ) :   0.8119 B( 12-O , 13-H ) :   0.7972 B( 12-O , 14-H ) :   0.8096
B( 15-O , 16-H ) :   0.7802 B( 15-O , 17-H ) :   0.8375 B( 18-O , 19-H ) :   0.8004
B( 18-O , 20-H ) :   0.8345 B( 21-O , 22-H ) :   0.7913 B( 21-O , 23-H ) :   0.8109
B( 24-O , 25-H ) :   0.8466 B( 24-O , 26-H ) :   0.7668

MP2 TOTAL ENERGY:     -686.925107371 Eh
FINAL SINGLE POINT ENERGY      -686.925107370685

DIPOLE MOMENT
-------------
                                X             Y             Z
Electronic contribution:      0.24157       0.12085      -0.04198
Nuclear contribution   :      0.67870       1.21732       0.63259
                        -----------------------------------------
Total Dipole Moment    :      0.92026       1.33817       0.59061
                        -----------------------------------------
Magnitude (a.u.)       :      1.72812
Magnitude (Debye)      :      4.39253

Rotational constants in cm-1:     0.029853     0.013553     0.012336
Rotational constants in MHz :   894.980544   406.295069   369.838532

                             ****ORCA TERMINATED NORMALLY****
TOTAL RUN TIME: 0 days 0 hours 4 minutes 33 seconds 560 msec
