                         Program Version 4.2.0 -  RELEASE  -
|  1> # 12h2o.su.etal.mol1,2,4,5,7,9,11
|  2> ! MP2 def2-TZVP EnGrad TightSCF
|  3>
|  4> %pal
|  5>     nprocs 6
|  6> end
|  7>
|  8> %maxcore 8000
|  9>
| 10> %scf
| 11>     ConvForced true
| 12> end
| 13>
| 14> *xyz 0 1
| 15> O  -1.794470000  -0.923410000   2.768350000
| 16> H  -2.338250000  -1.359750000   3.430940000
| 17> H  -0.879480000  -1.303000000   2.865760000
| 18> O   0.923410000  -1.794470000  -2.768350000
| 19> H   1.359750000  -2.338250000  -3.430940000
| 20> H   1.303000000  -0.879480000  -2.865760000
| 21> O  -0.885520000   1.737840000   0.052730000
| 22> H  -1.032320000   2.090180000  -0.841890000
| 23> H  -1.284090000   0.839590000   0.017130000
| 24> O   0.885520000  -1.737840000   0.052730000
| 25> H   1.284090000  -0.839590000   0.017130000
| 26> H   1.032320000  -2.090180000  -0.841890000
| 27> O  -1.737840000  -0.885520000  -0.052730000
| 28> H  -2.090180000  -1.032320000   0.841890000
| 29> H  -0.839590000  -1.284090000  -0.017130000
| 30> O   0.741530000  -1.752130000   2.896280000
| 31> H   0.920500000  -2.036450000   1.984040000
| 32> H   1.242140000  -0.921210000   2.984230000
| 33> O  -0.741530000   1.752130000   2.896280000
| 34> H  -0.920500000   2.036450000   1.984040000
| 35> H  -1.242140000   0.921210000   2.984230000
| 36> *
| 37>
| 38>                          ****END OF INPUT****

CARTESIAN COORDINATES (ANGSTROEM)
---------------------------------
  O     -1.794470   -0.923410    2.768350
  H     -2.338250   -1.359750    3.430940
  H     -0.879480   -1.303000    2.865760
  O      0.923410   -1.794470   -2.768350
  H      1.359750   -2.338250   -3.430940
  H      1.303000   -0.879480   -2.865760
  O     -0.885520    1.737840    0.052730
  H     -1.032320    2.090180   -0.841890
  H     -1.284090    0.839590    0.017130
  O      0.885520   -1.737840    0.052730
  H      1.284090   -0.839590    0.017130
  H      1.032320   -2.090180   -0.841890
  O     -1.737840   -0.885520   -0.052730
  H     -2.090180   -1.032320    0.841890
  H     -0.839590   -1.284090   -0.017130
  O      0.741530   -1.752130    2.896280
  H      0.920500   -2.036450    1.984040
  H      1.242140   -0.921210    2.984230
  O     -0.741530    1.752130    2.896280
  H     -0.920500    2.036450    1.984040
  H     -1.242140    0.921210    2.984230

 Total Charge           Charge          ....    0
 Multiplicity           Mult            ....    1
 Number of Electrons    NEL             ....   70
 Basis Dimension        Dim             ....  301

ORBITAL ENERGIES
----------------

  NO   OCC          E(Eh)            E(eV)
   0   2.0000     -20.612339      -560.8903
   1   2.0000     -20.601587      -560.5977
   2   2.0000     -20.578747      -559.9762
   3   2.0000     -20.554371      -559.3129
   4   2.0000     -20.536703      -558.8321
   5   2.0000     -20.532018      -558.7046
   6   2.0000     -20.493180      -557.6478
   7   2.0000      -1.394799       -37.9544
   8   2.0000      -1.383837       -37.6561
   9   2.0000      -1.367914       -37.2228
  10   2.0000      -1.340687       -36.4819
  11   2.0000      -1.327360       -36.1193
  12   2.0000      -1.312181       -35.7062
  13   2.0000      -1.278041       -34.7773
  14   2.0000      -0.759307       -20.6618
  15   2.0000      -0.750022       -20.4091
  16   2.0000      -0.726814       -19.7776
  17   2.0000      -0.721328       -19.6283
  18   2.0000      -0.697268       -18.9736
  19   2.0000      -0.691258       -18.8101
  20   2.0000      -0.655598       -17.8397
  21   2.0000      -0.646989       -17.6055
  22   2.0000      -0.624579       -16.9957
  23   2.0000      -0.603453       -16.4208
  24   2.0000      -0.594959       -16.1896
  25   2.0000      -0.570619       -15.5273
  26   2.0000      -0.565296       -15.3825
  27   2.0000      -0.552330       -15.0297
  28   2.0000      -0.533503       -14.5174
  29   2.0000      -0.520978       -14.1765
  30   2.0000      -0.513056       -13.9610
  31   2.0000      -0.495098       -13.4723
  32   2.0000      -0.486893       -13.2490
  33   2.0000      -0.477133       -12.9835
  34   2.0000      -0.443386       -12.0651
  35   0.0000       0.080982         2.2036
  36   0.0000       0.122808         3.3418
  37   0.0000       0.147568         4.0155
  38   0.0000       0.157409         4.2833
  39   0.0000       0.176137         4.7929

MULLIKEN ATOMIC CHARGES
-----------------------
   0 O :   -0.749462
   1 H :    0.346483
   2 H :    0.383103
   3 O :   -0.694141
   4 H :    0.359214
   5 H :    0.356481
   6 O :   -0.734995
   7 H :    0.329123
   8 H :    0.359564
   9 O :   -0.733411
  10 H :    0.354740
  11 H :    0.393269
  12 O :   -0.726705
  13 H :    0.375128
  14 H :    0.360846
  15 O :   -0.701688
  16 H :    0.386765
  17 H :    0.359708
  18 O :   -0.737590
  19 H :    0.368057
  20 H :    0.345511
Sum of atomic charges:   -0.0000000

LOEWDIN ATOMIC CHARGES
----------------------
   0 O :   -0.313500
   1 H :    0.157320
   2 H :    0.146616
   3 O :   -0.307458
   4 H :    0.167119
   5 H :    0.186977
   6 O :   -0.347716
   7 H :    0.158281
   8 H :    0.142856
   9 O :   -0.284888
  10 H :    0.176106
  11 H :    0.159744
  12 O :   -0.315681
  13 H :    0.148595
  14 H :    0.139023
  15 O :   -0.274587
  16 H :    0.157345
  17 H :    0.174949
  18 O :   -0.360661
  19 H :    0.150177
  20 H :    0.139382

  Mayer bond orders larger than 0.100000
B(  0-O ,  1-H ) :   0.8425 B(  0-O ,  2-H ) :   0.7439 B(  3-O ,  4-H ) :   0.8380
B(  3-O ,  5-H ) :   0.8332 B(  6-O ,  7-H ) :   0.8538 B(  6-O ,  8-H ) :   0.7605
B(  8-H , 12-O ) :   0.1145 B(  9-O , 10-H ) :   0.8289 B(  9-O , 11-H ) :   0.7872
B( 12-O , 13-H ) :   0.8038 B( 12-O , 14-H ) :   0.7977 B( 15-O , 16-H ) :   0.8028
B( 15-O , 17-H ) :   0.8317 B( 18-O , 19-H ) :   0.8209 B( 18-O , 20-H ) :   0.8265

MP2 TOTAL ENERGY:     -534.260405748 Eh
FINAL SINGLE POINT ENERGY      -534.260405747800

DIPOLE MOMENT
-------------
                                X             Y             Z
Electronic contribution:      0.15072      -0.52311      -0.05136
Nuclear contribution   :      1.44252      -0.82411      -2.14649
                        -----------------------------------------
Total Dipole Moment    :      1.59324      -1.34723      -2.19786
                        -----------------------------------------
Magnitude (a.u.)       :      3.03051
Magnitude (Debye)      :      7.70295

Rotational constants in cm-1:     0.046876     0.024945     0.020215
Rotational constants in MHz :  1405.301659   747.823439   606.027899

                             ****ORCA TERMINATED NORMALLY****
TOTAL RUN TIME: 0 days 0 hours 2 minutes 25 seconds 25 msec
