                         Program Version 4.2.0 -  RELEASE  -
|  1> # 12h2o.su.etal.mol0,4,5,6,8,9,10
|  2> ! MP2 def2-TZVP EnGrad TightSCF
|  3>
|  4> %pal
|  5>     nprocs 6
|  6> end
|  7>
|  8> %maxcore 8000
|  9>
| 10> %scf
| 11>     ConvForced true
| 12> end
| 13>
| 14> *xyz 0 1
| 15> O   1.794470000   0.923410000   2.768350000
| 16> H   2.338250000   1.359750000   3.430940000
| 17> H   0.879480000   1.303000000   2.865760000
| 18> O  -0.885520000   1.737840000   0.052730000
| 19> H  -1.032320000   2.090180000  -0.841890000
| 20> H  -1.284090000   0.839590000   0.017130000
| 21> O   0.885520000  -1.737840000   0.052730000
| 22> H   1.284090000  -0.839590000   0.017130000
| 23> H   1.032320000  -2.090180000  -0.841890000
| 24> O   1.737840000   0.885520000  -0.052730000
| 25> H   2.090180000   1.032320000   0.841890000
| 26> H   0.839590000   1.284090000  -0.017130000
| 27> O   1.752130000   0.741530000  -2.896280000
| 28> H   2.036450000   0.920500000  -1.984040000
| 29> H   0.921210000   1.242140000  -2.984230000
| 30> O   0.741530000  -1.752130000   2.896280000
| 31> H   0.920500000  -2.036450000   1.984040000
| 32> H   1.242140000  -0.921210000   2.984230000
| 33> O  -0.923410000   1.794470000  -2.768350000
| 34> H  -1.359750000   2.338250000  -3.430940000
| 35> H  -1.303000000   0.879480000  -2.865760000
| 36> *
| 37>
| 38>                          ****END OF INPUT****

CARTESIAN COORDINATES (ANGSTROEM)
---------------------------------
  O      1.794470    0.923410    2.768350
  H      2.338250    1.359750    3.430940
  H      0.879480    1.303000    2.865760
  O     -0.885520    1.737840    0.052730
  H     -1.032320    2.090180   -0.841890
  H     -1.284090    0.839590    0.017130
  O      0.885520   -1.737840    0.052730
  H      1.284090   -0.839590    0.017130
  H      1.032320   -2.090180   -0.841890
  O      1.737840    0.885520   -0.052730
  H      2.090180    1.032320    0.841890
  H      0.839590    1.284090   -0.017130
  O      1.752130    0.741530   -2.896280
  H      2.036450    0.920500   -1.984040
  H      0.921210    1.242140   -2.984230
  O      0.741530   -1.752130    2.896280
  H      0.920500   -2.036450    1.984040
  H      1.242140   -0.921210    2.984230
  O     -0.923410    1.794470   -2.768350
  H     -1.359750    2.338250   -3.430940
  H     -1.303000    0.879480   -2.865760

 Total Charge           Charge          ....    0
 Multiplicity           Mult            ....    1
 Number of Electrons    NEL             ....   70
 Basis Dimension        Dim             ....  301

ORBITAL ENERGIES
----------------

  NO   OCC          E(Eh)            E(eV)
   0   2.0000     -20.626711      -561.2813
   1   2.0000     -20.607940      -560.7705
   2   2.0000     -20.587805      -560.2227
   3   2.0000     -20.555507      -559.3438
   4   2.0000     -20.536658      -558.8309
   5   2.0000     -20.517184      -558.3009
   6   2.0000     -20.498991      -557.8059
   7   2.0000      -1.407292       -38.2944
   8   2.0000      -1.388534       -37.7839
   9   2.0000      -1.372409       -37.3452
  10   2.0000      -1.346501       -36.6402
  11   2.0000      -1.319149       -35.8959
  12   2.0000      -1.302279       -35.4368
  13   2.0000      -1.284018       -34.9399
  14   2.0000      -0.772610       -21.0238
  15   2.0000      -0.753839       -20.5130
  16   2.0000      -0.735014       -20.0007
  17   2.0000      -0.720466       -19.6049
  18   2.0000      -0.693086       -18.8598
  19   2.0000      -0.683059       -18.5870
  20   2.0000      -0.664323       -18.0771
  21   2.0000      -0.650213       -17.6932
  22   2.0000      -0.631170       -17.1750
  23   2.0000      -0.609294       -16.5797
  24   2.0000      -0.597625       -16.2622
  25   2.0000      -0.578887       -15.7523
  26   2.0000      -0.565775       -15.3955
  27   2.0000      -0.546694       -14.8763
  28   2.0000      -0.532681       -14.4950
  29   2.0000      -0.522845       -14.2273
  30   2.0000      -0.515487       -14.0271
  31   2.0000      -0.500276       -13.6132
  32   2.0000      -0.484772       -13.1913
  33   2.0000      -0.466784       -12.7018
  34   2.0000      -0.448869       -12.2143
  35   0.0000       0.080982         2.2036
  36   0.0000       0.106308         2.8928
  37   0.0000       0.139955         3.8084
  38   0.0000       0.167324         4.5531
  39   0.0000       0.175012         4.7623

MULLIKEN ATOMIC CHARGES
-----------------------
   0 O :   -0.715214
   1 H :    0.363400
   2 H :    0.376003
   3 O :   -0.704908
   4 H :    0.381394
   5 H :    0.355234
   6 O :   -0.736143
   7 H :    0.359355
   8 H :    0.338942
   9 O :   -0.746097
  10 H :    0.378893
  11 H :    0.358824
  12 O :   -0.723431
  13 H :    0.371395
  14 H :    0.338442
  15 O :   -0.727013
  16 H :    0.370557
  17 H :    0.336866
  18 O :   -0.717099
  19 H :    0.369582
  20 H :    0.371018
Sum of atomic charges:   -0.0000000

LOEWDIN ATOMIC CHARGES
----------------------
   0 O :   -0.287167
   1 H :    0.167530
   2 H :    0.193678
   3 O :   -0.297736
   4 H :    0.153695
   5 H :    0.176644
   6 O :   -0.344818
   7 H :    0.141904
   8 H :    0.162252
   9 O :   -0.300026
  10 H :    0.150844
  11 H :    0.141250
  12 O :   -0.353328
  13 H :    0.149326
  14 H :    0.138394
  15 O :   -0.356744
  16 H :    0.151474
  17 H :    0.137674
  18 O :   -0.287472
  19 H :    0.170261
  20 H :    0.192365

  Mayer bond orders larger than 0.100000
B(  0-O ,  1-H ) :   0.8327 B(  0-O ,  2-H ) :   0.8167 B(  3-O ,  4-H ) :   0.8038
B(  3-O ,  5-H ) :   0.8331 B(  6-O ,  7-H ) :   0.7733 B(  6-O ,  8-H ) :   0.8474
B(  9-O , 10-H ) :   0.8056 B(  9-O , 11-H ) :   0.7698 B( 12-O , 13-H ) :   0.8192
B( 12-O , 14-H ) :   0.8402 B( 15-O , 16-H ) :   0.8188 B( 15-O , 17-H ) :   0.8413
B( 18-O , 19-H ) :   0.8289 B( 18-O , 20-H ) :   0.8201

MP2 TOTAL ENERGY:     -534.251885801 Eh
FINAL SINGLE POINT ENERGY      -534.251885800607

DIPOLE MOMENT
-------------
                                X             Y             Z
Electronic contribution:     -0.03859       0.26494       0.07205
Nuclear contribution   :     -1.33184       1.84474      -0.77428
                        -----------------------------------------
Total Dipole Moment    :     -1.37043       2.10968      -0.70223
                        -----------------------------------------
Magnitude (a.u.)       :      2.61189
Magnitude (Debye)      :      6.63889

Rotational constants in cm-1:     0.054276     0.021052     0.019617
Rotational constants in MHz :  1627.153901   631.134854   588.104733

                             ****ORCA TERMINATED NORMALLY****
TOTAL RUN TIME: 0 days 0 hours 1 minutes 51 seconds 387 msec
