                         Program Version 4.2.0 -  RELEASE  -
|  1> # 12mecn.remya.etal.2.mol2,7
|  2> ! MP2 def2-TZVP EnGrad TightSCF
|  3>
|  4> %pal
|  5>     nprocs 6
|  6> end
|  7>
|  8> %maxcore 8000
|  9>
| 10> %scf
| 11>     ConvForced true
| 12> end
| 13>
| 14> *xyz 0 1
| 15> C  -4.219070000  -3.477410000  -1.501740000
| 16> H  -3.251530000  -3.803540000  -1.893830000
| 17> H  -4.452920000  -2.481700000  -1.890840000
| 18> H  -4.992170000  -4.178130000  -1.824640000
| 19> C  -4.154550000  -3.418790000  -0.058340000
| 20> N  -4.091140000  -3.354840000   1.104432000
| 21> C   1.502241000   0.651296000   1.710523000
| 22> H   1.309219000   1.637164000   2.143202000
| 23> H   2.493408000   0.297996000   2.009069000
| 24> H   0.746597000  -0.059850000   2.055508000
| 25> C   1.447974000   0.738517000   0.269805000
| 26> N   1.405612000   0.808047000  -0.894380000
| 27> *
| 28>
| 29>                          ****END OF INPUT****

CARTESIAN COORDINATES (ANGSTROEM)
---------------------------------
  C     -4.219070   -3.477410   -1.501740
  H     -3.251530   -3.803540   -1.893830
  H     -4.452920   -2.481700   -1.890840
  H     -4.992170   -4.178130   -1.824640
  C     -4.154550   -3.418790   -0.058340
  N     -4.091140   -3.354840    1.104432
  C      1.502241    0.651296    1.710523
  H      1.309219    1.637164    2.143202
  H      2.493408    0.297996    2.009069
  H      0.746597   -0.059850    2.055508
  C      1.447974    0.738517    0.269805
  N      1.405612    0.808047   -0.894380

 Total Charge           Charge          ....    0
 Multiplicity           Mult            ....    1
 Number of Electrons    NEL             ....   44
 Basis Dimension        Dim             ....  222

ORBITAL ENERGIES
----------------

  NO   OCC          E(Eh)            E(eV)
   0   2.0000     -15.573347      -423.7723
   1   2.0000     -15.572274      -423.7431
   2   2.0000     -11.284170      -307.0579
   3   2.0000     -11.283288      -307.0339
   4   2.0000     -11.280733      -306.9643
   5   2.0000     -11.279607      -306.9337
   6   2.0000      -1.215245       -33.0685
   7   2.0000      -1.213814       -33.0296
   8   2.0000      -1.043026       -28.3822
   9   2.0000      -1.042817       -28.3765
  10   2.0000      -0.699971       -19.0472
  11   2.0000      -0.697486       -18.9795
  12   2.0000      -0.631708       -17.1896
  13   2.0000      -0.630939       -17.1687
  14   2.0000      -0.630286       -17.1510
  15   2.0000      -0.630058       -17.1447
  16   2.0000      -0.556667       -15.1477
  17   2.0000      -0.555352       -15.1119
  18   2.0000      -0.458355       -12.4725
  19   2.0000      -0.458142       -12.4667
  20   2.0000      -0.456965       -12.4346
  21   2.0000      -0.456674       -12.4267
  22   0.0000       0.118823         3.2333
  23   0.0000       0.122693         3.3387
  24   0.0000       0.171593         4.6693
  25   0.0000       0.172571         4.6959
  26   0.0000       0.172787         4.7018

MULLIKEN ATOMIC CHARGES
-----------------------
   0 C :   -0.279147
   1 H :    0.173919
   2 H :    0.173827
   3 H :    0.171608
   4 C :   -0.145490
   5 N :   -0.094707
   6 C :   -0.278093
   7 H :    0.171751
   8 H :    0.171252
   9 H :    0.177240
  10 C :   -0.146243
  11 N :   -0.095917
Sum of atomic charges:   -0.0000000

LOEWDIN ATOMIC CHARGES
----------------------
   0 C :   -0.283143
   1 H :    0.153534
   2 H :    0.153865
   3 H :    0.150999
   4 C :   -0.218687
   5 N :    0.043436
   6 C :   -0.282884
   7 H :    0.152769
   8 H :    0.152990
   9 H :    0.154485
  10 C :   -0.220160
  11 N :    0.042797

  Mayer bond orders larger than 0.100000
B(  0-C ,  1-H ) :   0.9156 B(  0-C ,  2-H ) :   0.9157 B(  0-C ,  3-H ) :   0.9166
B(  0-C ,  4-C ) :   0.9026 B(  4-C ,  5-N ) :   2.8396 B(  6-C ,  7-H ) :   0.9161
B(  6-C ,  8-H ) :   0.9164 B(  6-C ,  9-H ) :   0.9153 B(  6-C , 10-C ) :   0.9004
B( 10-C , 11-N ) :   2.8397

MP2 TOTAL ENERGY:     -264.967209890 Eh
FINAL SINGLE POINT ENERGY      -264.967209889846

DIPOLE MOMENT
-------------
                                X             Y             Z
Electronic contribution:      0.01375       0.31518       0.02479
Nuclear contribution   :     -0.03572      -0.48288      -0.02765
                        -----------------------------------------
Total Dipole Moment    :     -0.02197      -0.16770      -0.00286
                        -----------------------------------------
Magnitude (a.u.)       :      0.16916
Magnitude (Debye)      :      0.42997

Rotational constants in cm-1:     0.156903     0.016584     0.015090
Rotational constants in MHz :  4703.823569   497.174351   452.375589

                             ****ORCA TERMINATED NORMALLY****
TOTAL RUN TIME: 0 days 0 hours 0 minutes 54 seconds 884 msec
