                         Program Version 4.2.0 -  RELEASE  -
|  1> # 12h2o.su.etal.mol0,5,7,9,10
|  2> ! MP2 def2-TZVP EnGrad TightSCF
|  3>
|  4> %pal
|  5>     nprocs 6
|  6> end
|  7>
|  8> %maxcore 8000
|  9>
| 10> %scf
| 11>     ConvForced true
| 12> end
| 13>
| 14> *xyz 0 1
| 15> O   1.794470000   0.923410000   2.768350000
| 16> H   2.338250000   1.359750000   3.430940000
| 17> H   0.879480000   1.303000000   2.865760000
| 18> O   0.885520000  -1.737840000   0.052730000
| 19> H   1.284090000  -0.839590000   0.017130000
| 20> H   1.032320000  -2.090180000  -0.841890000
| 21> O  -1.737840000  -0.885520000  -0.052730000
| 22> H  -2.090180000  -1.032320000   0.841890000
| 23> H  -0.839590000  -1.284090000  -0.017130000
| 24> O   0.741530000  -1.752130000   2.896280000
| 25> H   0.920500000  -2.036450000   1.984040000
| 26> H   1.242140000  -0.921210000   2.984230000
| 27> O  -0.923410000   1.794470000  -2.768350000
| 28> H  -1.359750000   2.338250000  -3.430940000
| 29> H  -1.303000000   0.879480000  -2.865760000
| 30> *
| 31>
| 32>                          ****END OF INPUT****

CARTESIAN COORDINATES (ANGSTROEM)
---------------------------------
  O      1.794470    0.923410    2.768350
  H      2.338250    1.359750    3.430940
  H      0.879480    1.303000    2.865760
  O      0.885520   -1.737840    0.052730
  H      1.284090   -0.839590    0.017130
  H      1.032320   -2.090180   -0.841890
  O     -1.737840   -0.885520   -0.052730
  H     -2.090180   -1.032320    0.841890
  H     -0.839590   -1.284090   -0.017130
  O      0.741530   -1.752130    2.896280
  H      0.920500   -2.036450    1.984040
  H      1.242140   -0.921210    2.984230
  O     -0.923410    1.794470   -2.768350
  H     -1.359750    2.338250   -3.430940
  H     -1.303000    0.879480   -2.865760

 Total Charge           Charge          ....    0
 Multiplicity           Mult            ....    1
 Number of Electrons    NEL             ....   50
 Basis Dimension        Dim             ....  215

ORBITAL ENERGIES
----------------

  NO   OCC          E(Eh)            E(eV)
   0   2.0000     -20.606383      -560.7282
   1   2.0000     -20.591714      -560.3290
   2   2.0000     -20.555024      -559.3307
   3   2.0000     -20.526030      -558.5417
   4   2.0000     -20.514891      -558.2386
   5   2.0000      -1.389247       -37.8033
   6   2.0000      -1.369333       -37.2614
   7   2.0000      -1.330430       -36.2028
   8   2.0000      -1.307272       -35.5727
   9   2.0000      -1.300144       -35.3787
  10   2.0000      -0.747309       -20.3353
  11   2.0000      -0.736480       -20.0406
  12   2.0000      -0.698726       -19.0133
  13   2.0000      -0.687176       -18.6990
  14   2.0000      -0.678520       -18.4635
  15   2.0000      -0.628018       -17.0892
  16   2.0000      -0.604579       -16.4514
  17   2.0000      -0.571093       -15.5402
  18   2.0000      -0.566950       -15.4275
  19   2.0000      -0.546084       -14.8597
  20   2.0000      -0.526891       -14.3374
  21   2.0000      -0.520020       -14.1505
  22   2.0000      -0.498311       -13.5597
  23   2.0000      -0.474332       -12.9072
  24   2.0000      -0.464419       -12.6375
  25   0.0000       0.097149         2.6436
  26   0.0000       0.120169         3.2700
  27   0.0000       0.141035         3.8377
  28   0.0000       0.171183         4.6581
  29   0.0000       0.190123         5.1735

MULLIKEN ATOMIC CHARGES
-----------------------
   0 O :   -0.700384
   1 H :    0.355547
   2 H :    0.364840
   3 O :   -0.708689
   4 H :    0.375149
   5 H :    0.363850
   6 O :   -0.719127
   7 H :    0.335785
   8 H :    0.351991
   9 O :   -0.722726
  10 H :    0.361428
  11 H :    0.344328
  12 O :   -0.687891
  13 H :    0.335544
  14 H :    0.350357
Sum of atomic charges:   -0.0000000

LOEWDIN ATOMIC CHARGES
----------------------
   0 O :   -0.313099
   1 H :    0.164853
   2 H :    0.190038
   3 O :   -0.276442
   4 H :    0.186240
   5 H :    0.175551
   6 O :   -0.362850
   7 H :    0.161663
   8 H :    0.139687
   9 O :   -0.352209
  10 H :    0.146890
  11 H :    0.141701
  12 O :   -0.341477
  13 H :    0.156419
  14 H :    0.183034

  Mayer bond orders larger than 0.100000
B(  0-O ,  1-H ) :   0.8401 B(  0-O ,  2-H ) :   0.8276 B(  3-O ,  4-H ) :   0.8195
B(  3-O ,  5-H ) :   0.8313 B(  6-O ,  7-H ) :   0.8532 B(  6-O ,  8-H ) :   0.8086
B(  9-O , 10-H ) :   0.8326 B(  9-O , 11-H ) :   0.8278 B( 12-O , 13-H ) :   0.8550
B( 12-O , 14-H ) :   0.8392

MP2 TOTAL ENERGY:     -381.586875315 Eh
FINAL SINGLE POINT ENERGY      -381.586875315044

DIPOLE MOMENT
-------------
                                X             Y             Z
Electronic contribution:      0.21831      -0.01869       0.04577
Nuclear contribution   :      0.48587       0.82559      -0.68611
                        -----------------------------------------
Total Dipole Moment    :      0.70418       0.80689      -0.64034
                        -----------------------------------------
Magnitude (a.u.)       :      1.24779
Magnitude (Debye)      :      3.17163

Rotational constants in cm-1:     0.076698     0.028948     0.024419
Rotational constants in MHz :  2299.340996   867.834638   732.067721

                             ****ORCA TERMINATED NORMALLY****
TOTAL RUN TIME: 0 days 0 hours 0 minutes 27 seconds 154 msec
