                         Program Version 4.2.0 -  RELEASE  -
|  1> # 12h2o.su.etal.mol2,5,7,8,11
|  2> ! MP2 def2-TZVP EnGrad TightSCF
|  3>
|  4> %pal
|  5>     nprocs 6
|  6> end
|  7>
|  8> %maxcore 8000
|  9>
| 10> %scf
| 11>     ConvForced true
| 12> end
| 13>
| 14> *xyz 0 1
| 15> O   0.923410000  -1.794470000  -2.768350000
| 16> H   1.359750000  -2.338250000  -3.430940000
| 17> H   1.303000000  -0.879480000  -2.865760000
| 18> O   0.885520000  -1.737840000   0.052730000
| 19> H   1.284090000  -0.839590000   0.017130000
| 20> H   1.032320000  -2.090180000  -0.841890000
| 21> O  -1.737840000  -0.885520000  -0.052730000
| 22> H  -2.090180000  -1.032320000   0.841890000
| 23> H  -0.839590000  -1.284090000  -0.017130000
| 24> O   1.752130000   0.741530000  -2.896280000
| 25> H   2.036450000   0.920500000  -1.984040000
| 26> H   0.921210000   1.242140000  -2.984230000
| 27> O  -0.741530000   1.752130000   2.896280000
| 28> H  -0.920500000   2.036450000   1.984040000
| 29> H  -1.242140000   0.921210000   2.984230000
| 30> *
| 31>
| 32>                          ****END OF INPUT****

CARTESIAN COORDINATES (ANGSTROEM)
---------------------------------
  O      0.923410   -1.794470   -2.768350
  H      1.359750   -2.338250   -3.430940
  H      1.303000   -0.879480   -2.865760
  O      0.885520   -1.737840    0.052730
  H      1.284090   -0.839590    0.017130
  H      1.032320   -2.090180   -0.841890
  O     -1.737840   -0.885520   -0.052730
  H     -2.090180   -1.032320    0.841890
  H     -0.839590   -1.284090   -0.017130
  O      1.752130    0.741530   -2.896280
  H      2.036450    0.920500   -1.984040
  H      0.921210    1.242140   -2.984230
  O     -0.741530    1.752130    2.896280
  H     -0.920500    2.036450    1.984040
  H     -1.242140    0.921210    2.984230

 Total Charge           Charge          ....    0
 Multiplicity           Mult            ....    1
 Number of Electrons    NEL             ....   50
 Basis Dimension        Dim             ....  215

ORBITAL ENERGIES
----------------

  NO   OCC          E(Eh)            E(eV)
   0   2.0000     -20.618650      -561.0620
   1   2.0000     -20.567801      -559.6783
   2   2.0000     -20.562741      -559.5406
   3   2.0000     -20.555381      -559.3403
   4   2.0000     -20.527905      -558.5927
   5   2.0000      -1.404091       -38.2073
   6   2.0000      -1.354409       -36.8554
   7   2.0000      -1.341866       -36.5140
   8   2.0000      -1.336938       -36.3799
   9   2.0000      -1.308213       -35.5983
  10   2.0000      -0.761157       -20.7121
  11   2.0000      -0.726251       -19.7623
  12   2.0000      -0.713734       -19.4217
  13   2.0000      -0.704888       -19.1810
  14   2.0000      -0.682391       -18.5688
  15   2.0000      -0.642584       -17.4856
  16   2.0000      -0.603725       -16.4282
  17   2.0000      -0.583007       -15.8644
  18   2.0000      -0.579575       -15.7710
  19   2.0000      -0.556824       -15.1520
  20   2.0000      -0.542207       -14.7542
  21   2.0000      -0.506945       -13.7947
  22   2.0000      -0.504588       -13.7305
  23   2.0000      -0.503298       -13.6954
  24   2.0000      -0.475750       -12.9458
  25   0.0000       0.077143         2.0992
  26   0.0000       0.115683         3.1479
  27   0.0000       0.148681         4.0458
  28   0.0000       0.153295         4.1714
  29   0.0000       0.177764         4.8372

MULLIKEN ATOMIC CHARGES
-----------------------
   0 O :   -0.731871
   1 H :    0.340844
   2 H :    0.367903
   3 O :   -0.690462
   4 H :    0.321620
   5 H :    0.383930
   6 O :   -0.717431
   7 H :    0.315391
   8 H :    0.363620
   9 O :   -0.674927
  10 H :    0.352268
  11 H :    0.371888
  12 O :   -0.675667
  13 H :    0.337442
  14 H :    0.335455
Sum of atomic charges:   -0.0000000

LOEWDIN ATOMIC CHARGES
----------------------
   0 O :   -0.336374
   1 H :    0.156057
   2 H :    0.143167
   3 O :   -0.297027
   4 H :    0.162119
   5 H :    0.154838
   6 O :   -0.363047
   7 H :    0.151465
   8 H :    0.143584
   9 O :   -0.265975
  10 H :    0.170937
  11 H :    0.182784
  12 O :   -0.331919
  13 H :    0.164549
  14 H :    0.164843

  Mayer bond orders larger than 0.100000
B(  0-O ,  1-H ) :   0.8486 B(  0-O ,  2-H ) :   0.7715 B(  3-O ,  4-H ) :   0.8548
B(  3-O ,  5-H ) :   0.7906 B(  6-O ,  7-H ) :   0.8640 B(  6-O ,  8-H ) :   0.7883
B(  9-O , 10-H ) :   0.8401 B(  9-O , 11-H ) :   0.8281 B( 12-O , 13-H ) :   0.8519
B( 12-O , 14-H ) :   0.8531

MP2 TOTAL ENERGY:     -381.590853778 Eh
FINAL SINGLE POINT ENERGY      -381.590853778211

DIPOLE MOMENT
-------------
                                X             Y             Z
Electronic contribution:      0.24037       0.09615      -0.23124
Nuclear contribution   :      0.56686       0.42012      -0.63259
                        -----------------------------------------
Total Dipole Moment    :      0.80723       0.51626      -0.86383
                        -----------------------------------------
Magnitude (a.u.)       :      1.29010
Magnitude (Debye)      :      3.27917

Rotational constants in cm-1:     0.081951     0.028775     0.024788
Rotational constants in MHz :  2456.830929   862.641670   743.124230

                             ****ORCA TERMINATED NORMALLY****
TOTAL RUN TIME: 0 days 0 hours 0 minutes 28 seconds 240 msec
