                         Program Version 4.2.0 -  RELEASE  -
|  1> # 12h2o.su.etal.mol3,6,11
|  2> ! MP2 def2-TZVP EnGrad TightSCF
|  3>
|  4> %pal
|  5>     nprocs 6
|  6> end
|  7>
|  8> %maxcore 8000
|  9>
| 10> %scf
| 11>     ConvForced true
| 12> end
| 13>
| 14> *xyz 0 1
| 15> O  -1.752130000  -0.741530000  -2.896280000
| 16> H  -2.036450000  -0.920500000  -1.984040000
| 17> H  -0.921210000  -1.242140000  -2.984230000
| 18> O   1.737840000   0.885520000  -0.052730000
| 19> H   2.090180000   1.032320000   0.841890000
| 20> H   0.839590000   1.284090000  -0.017130000
| 21> O  -0.741530000   1.752130000   2.896280000
| 22> H  -0.920500000   2.036450000   1.984040000
| 23> H  -1.242140000   0.921210000   2.984230000
| 24> *
| 25>
| 26>                          ****END OF INPUT****

CARTESIAN COORDINATES (ANGSTROEM)
---------------------------------
  O     -1.752130   -0.741530   -2.896280
  H     -2.036450   -0.920500   -1.984040
  H     -0.921210   -1.242140   -2.984230
  O      1.737840    0.885520   -0.052730
  H      2.090180    1.032320    0.841890
  H      0.839590    1.284090   -0.017130
  O     -0.741530    1.752130    2.896280
  H     -0.920500    2.036450    1.984040
  H     -1.242140    0.921210    2.984230

 Total Charge           Charge          ....    0
 Multiplicity           Mult            ....    1
 Number of Electrons    NEL             ....   30
 Basis Dimension        Dim             ....  129

ORBITAL ENERGIES
----------------

  NO   OCC          E(Eh)            E(eV)
   0   2.0000     -20.580580      -560.0261
   1   2.0000     -20.568414      -559.6950
   2   2.0000     -20.565774      -559.6232
   3   2.0000      -1.359593       -36.9964
   4   2.0000      -1.344974       -36.5986
   5   2.0000      -1.344238       -36.5786
   6   2.0000      -0.722435       -19.6584
   7   2.0000      -0.707816       -19.2607
   8   2.0000      -0.706435       -19.2231
   9   2.0000      -0.596703       -16.2371
  10   2.0000      -0.583653       -15.8820
  11   2.0000      -0.582404       -15.8480
  12   2.0000      -0.524106       -14.2616
  13   2.0000      -0.511155       -13.9092
  14   2.0000      -0.509779       -13.8718
  15   0.0000       0.085303         2.3212
  16   0.0000       0.125414         3.4127
  17   0.0000       0.154813         4.2127
  18   0.0000       0.174333         4.7439
  19   0.0000       0.195817         5.3284

MULLIKEN ATOMIC CHARGES
-----------------------
   0 O :   -0.674050
   1 H :    0.331707
   2 H :    0.342779
   3 O :   -0.672593
   4 H :    0.344350
   5 H :    0.325698
   6 O :   -0.668027
   7 H :    0.328596
   8 H :    0.341541
Sum of atomic charges:    0.0000000

LOEWDIN ATOMIC CHARGES
----------------------
   0 O :   -0.331947
   1 H :    0.163012
   2 H :    0.169213
   3 O :   -0.335136
   4 H :    0.167629
   5 H :    0.165307
   6 O :   -0.327085
   7 H :    0.160095
   8 H :    0.168913

  Mayer bond orders larger than 0.100000
B(  0-O ,  1-H ) :   0.8564 B(  0-O ,  2-H ) :   0.8497 B(  3-O ,  4-H ) :   0.8483
B(  3-O ,  5-H ) :   0.8562 B(  6-O ,  7-H ) :   0.8561 B(  6-O ,  8-H ) :   0.8501

MP2 TOTAL ENERGY:     -228.939407935 Eh
FINAL SINGLE POINT ENERGY      -228.939407935190

DIPOLE MOMENT
-------------
                                X             Y             Z
Electronic contribution:      0.10773       0.08295      -0.09481
Nuclear contribution   :     -0.56508      -0.56668       0.77428
                        -----------------------------------------
Total Dipole Moment    :     -0.45735      -0.48373       0.67947
                        -----------------------------------------
Magnitude (a.u.)       :      0.95123
Magnitude (Debye)      :      2.41783

Rotational constants in cm-1:     0.161084     0.045933     0.035997
Rotational constants in MHz :  4829.175373  1377.042153  1079.170947

                             ****ORCA TERMINATED NORMALLY****
TOTAL RUN TIME: 0 days 0 hours 0 minutes 30 seconds 302 msec
