                         Program Version 4.2.0 -  RELEASE  -
|  1> ! MP2 def2-TZVP EnGrad TightSCF FrozenCore
|  2>
|  3> %pal
|  4>     nprocs 12
|  5> end
|  6>
|  7> %maxcore 8000
|  8>
|  9> %scf
| 10>     ConvForced true
| 11> end
| 12>
| 13> *xyz 0 1
| 14> C    -3.453033     1.947101    -0.974925
| 15> H    -2.808897     2.828802    -1.005793
| 16> H    -4.471706     2.220663    -1.261575
| 17> H    -3.058500     1.201803    -1.670873
| 18> C    -3.450187     1.381223     0.370992
| 19> N    -3.459233     0.923836     1.439535
| 20> C     3.989400    -1.322149     0.849099
| 21> H     3.085308    -1.868307     1.134160
| 22> H     4.270925    -0.658751     1.670056
| 23> H     4.797634    -2.028369     0.642145
| 24> C     3.703624    -0.528326    -0.342436
| 25> N     3.480035     0.091783    -1.299706
| 26> C    -0.354056     0.058589     2.249586
| 27> H    -0.366461    -0.950096     2.671343
| 28> H    -0.771420     0.028466     1.238694
| 29> H    -0.969056     0.724469     2.860066
| 30> C     1.020388     0.544339     2.183806
| 31> N     2.111291     0.943326     2.134457
| 32> C     0.520782    -1.225739    -2.408655
| 33> H     0.491823    -2.075947    -3.095164
| 34> H     1.389356    -0.598529    -2.628970
| 35> H    -0.394984    -0.639047    -2.515111
| 36> C     0.618639    -1.705509    -1.033677
| 37> N     0.700341    -2.099510     0.057779
| 38> C     2.034323     2.894476    -0.687437
| 39> H     1.814615     3.964853    -0.656753
| 40> H     2.658685     2.662968    -1.553287
| 41> H     2.573711     2.599987     0.217425
| 42> C     0.789481     2.134835    -0.763013
| 43> N    -0.211703     1.546179    -0.818302
| 44> C    -2.663882    -2.396232     0.934442
| 45> H    -1.644584    -2.725541     1.159104
| 46> H    -3.343430    -3.250864     0.984766
| 47> H    -2.976709    -1.639084     1.660513
| 48> C    -2.691995    -1.812934    -0.403902
| 49> N    -2.714616    -1.350687    -1.470053
| 50> *
| 51>
| 52>                          ****END OF INPUT****

CARTESIAN COORDINATES (ANGSTROEM)
---------------------------------
  C     -3.453033    1.947101   -0.974925
  H     -2.808897    2.828802   -1.005793
  H     -4.471706    2.220663   -1.261575
  H     -3.058500    1.201803   -1.670873
  C     -3.450187    1.381223    0.370992
  N     -3.459233    0.923836    1.439535
  C      3.989400   -1.322149    0.849099
  H      3.085308   -1.868307    1.134160
  H      4.270925   -0.658751    1.670056
  H      4.797634   -2.028369    0.642145
  C      3.703624   -0.528326   -0.342436
  N      3.480035    0.091783   -1.299706
  C     -0.354056    0.058589    2.249586
  H     -0.366461   -0.950096    2.671343
  H     -0.771420    0.028466    1.238694
  H     -0.969056    0.724469    2.860066
  C      1.020388    0.544339    2.183806
  N      2.111291    0.943326    2.134457
  C      0.520782   -1.225739   -2.408655
  H      0.491823   -2.075947   -3.095164
  H      1.389356   -0.598529   -2.628970
  H     -0.394984   -0.639047   -2.515111
  C      0.618639   -1.705509   -1.033677
  N      0.700341   -2.099510    0.057779
  C      2.034323    2.894476   -0.687437
  H      1.814615    3.964853   -0.656753
  H      2.658685    2.662968   -1.553287
  H      2.573711    2.599987    0.217425
  C      0.789481    2.134835   -0.763013
  N     -0.211703    1.546179   -0.818302
  C     -2.663882   -2.396232    0.934442
  H     -1.644584   -2.725541    1.159104
  H     -3.343430   -3.250864    0.984766
  H     -2.976709   -1.639084    1.660513
  C     -2.691995   -1.812934   -0.403902
  N     -2.714616   -1.350687   -1.470053

 Total Charge           Charge          ....    0
 Multiplicity           Mult            ....    1
 Number of Electrons    NEL             ....  132
 Basis Dimension        Dim             ....  666

ORBITAL ENERGIES
----------------

  NO   OCC          E(Eh)            E(eV)
   0   2.0000     -15.566174      -423.5771
   1   2.0000     -15.565238      -423.5516
   2   2.0000     -15.562946      -423.4893
   3   2.0000     -15.562429      -423.4752
   4   2.0000     -15.561278      -423.4439
   5   2.0000     -15.560927      -423.4344
   6   2.0000     -11.282063      -307.0005
   7   2.0000     -11.279176      -306.9220
   8   2.0000     -11.278948      -306.9158
   9   2.0000     -11.278347      -306.8994
  10   2.0000     -11.277037      -306.8638
  11   2.0000     -11.276039      -306.8366
  12   2.0000     -11.267105      -306.5935
  13   2.0000     -11.263531      -306.4963
  14   2.0000     -11.262857      -306.4779
  15   2.0000     -11.262212      -306.4604
  16   2.0000     -11.256338      -306.3005
  17   2.0000     -11.254908      -306.2616
  18   2.0000      -1.217867       -33.1398
  19   2.0000      -1.215533       -33.0763
  20   2.0000      -1.213610       -33.0240
  21   2.0000      -1.211111       -32.9560
  22   2.0000      -1.210047       -32.9270
  23   2.0000      -1.209873       -32.9223
  24   2.0000      -1.027201       -27.9516
  25   2.0000      -1.024265       -27.8717
  26   2.0000      -1.022401       -27.8210
  27   2.0000      -1.020973       -27.7821
  28   2.0000      -1.017049       -27.6753
  29   2.0000      -1.015816       -27.6418
  30   2.0000      -0.687761       -18.7149
  31   2.0000      -0.684370       -18.6226
  32   2.0000      -0.682385       -18.5686
  33   2.0000      -0.680634       -18.5210
  34   2.0000      -0.677679       -18.4406
  35   2.0000      -0.675721       -18.3873
  36   2.0000      -0.623439       -16.9646
  37   2.0000      -0.622138       -16.9292
  38   2.0000      -0.621209       -16.9039
  39   2.0000      -0.617474       -16.8023
  40   2.0000      -0.614707       -16.7270
  41   2.0000      -0.613674       -16.6989
  42   2.0000      -0.612228       -16.6596
  43   2.0000      -0.606431       -16.5018
  44   2.0000      -0.604362       -16.4455
  45   2.0000      -0.602170       -16.3859
  46   2.0000      -0.598936       -16.2979
  47   2.0000      -0.597437       -16.2571
  48   2.0000      -0.556223       -15.1356
  49   2.0000      -0.555137       -15.1061
  50   2.0000      -0.553039       -15.0490
  51   2.0000      -0.550976       -14.9928
  52   2.0000      -0.550314       -14.9748
  53   2.0000      -0.548460       -14.9244
  54   2.0000      -0.463782       -12.6201
  55   2.0000      -0.461349       -12.5539
  56   2.0000      -0.459350       -12.4995
  57   2.0000      -0.458704       -12.4820
  58   2.0000      -0.457065       -12.4374
  59   2.0000      -0.456347       -12.4178
  60   2.0000      -0.453372       -12.3369
  61   2.0000      -0.452617       -12.3163
  62   2.0000      -0.451868       -12.2959
  63   2.0000      -0.450175       -12.2499
  64   2.0000      -0.448118       -12.1939
  65   2.0000      -0.445131       -12.1126
  66   0.0000       0.128403         3.4940
  67   0.0000       0.145047         3.9469
  68   0.0000       0.149119         4.0577
  69   0.0000       0.159243         4.3332
  70   0.0000       0.161770         4.4020

MULLIKEN ATOMIC CHARGES
-----------------------
   0 C :   -0.264033
   1 H :    0.162633
   2 H :    0.168378
   3 H :    0.198016
   4 C :   -0.096710
   5 N :   -0.168602
   6 C :   -0.288714
   7 H :    0.190849
   8 H :    0.184551
   9 H :    0.167848
  10 C :   -0.069928
  11 N :   -0.184876
  12 C :   -0.294611
  13 H :    0.159945
  14 H :    0.185552
  15 H :    0.186474
  16 C :   -0.055841
  17 N :   -0.181480
  18 C :   -0.291555
  19 H :    0.165754
  20 H :    0.192666
  21 H :    0.199011
  22 C :   -0.041818
  23 N :   -0.223805
  24 C :   -0.281518
  25 H :    0.167167
  26 H :    0.184278
  27 H :    0.197670
  28 C :   -0.045009
  29 N :   -0.218692
  30 C :   -0.315390
  31 H :    0.189566
  32 H :    0.172885
  33 H :    0.200152
  34 C :   -0.084951
  35 N :   -0.165862
Sum of atomic charges:   -0.0000000

LOEWDIN ATOMIC CHARGES
----------------------
   0 C :   -0.285742
   1 H :    0.149518
   2 H :    0.146990
   3 H :    0.155358
   4 C :   -0.201860
   5 N :    0.023745
   6 C :   -0.284842
   7 H :    0.154647
   8 H :    0.153687
   9 H :    0.146570
  10 C :   -0.197904
  11 N :    0.027288
  12 C :   -0.287118
  13 H :    0.148926
  14 H :    0.153510
  15 H :    0.152588
  16 C :   -0.197091
  17 N :    0.026099
  18 C :   -0.283777
  19 H :    0.148726
  20 H :    0.152615
  21 H :    0.154239
  22 C :   -0.195403
  23 N :    0.020051
  24 C :   -0.282774
  25 H :    0.146480
  26 H :    0.153821
  27 H :    0.156440
  28 C :   -0.193506
  29 N :    0.037793
  30 C :   -0.285063
  31 H :    0.151915
  32 H :    0.148752
  33 H :    0.154050
  34 C :   -0.202049
  35 N :    0.033322

  Mayer bond orders larger than 0.100000
B(  0-C ,  1-H ) :   0.9180 B(  0-C ,  2-H ) :   0.9097 B(  0-C ,  3-H ) :   0.9054
B(  0-C ,  4-C ) :   0.9055 B(  4-C ,  5-N ) :   2.7556 B(  6-C ,  7-H ) :   0.9099
B(  6-C ,  8-H ) :   0.9139 B(  6-C ,  9-H ) :   0.9104 B(  6-C , 10-C ) :   0.8956
B( 10-C , 11-N ) :   2.7308 B( 12-C , 13-H ) :   0.9152 B( 12-C , 14-H ) :   0.9067
B( 12-C , 15-H ) :   0.9028 B( 12-C , 16-C ) :   0.9177 B( 16-C , 17-N ) :   2.7296
B( 18-C , 19-H ) :   0.9094 B( 18-C , 20-H ) :   0.9101 B( 18-C , 21-H ) :   0.9059
B( 18-C , 22-C ) :   0.8918 B( 22-C , 23-N ) :   2.6845 B( 24-C , 25-H ) :   0.9114
B( 24-C , 26-H ) :   0.9146 B( 24-C , 27-H ) :   0.9099 B( 24-C , 28-C ) :   0.8829
B( 28-C , 29-N ) :   2.6685 B( 30-C , 31-H ) :   0.9112 B( 30-C , 32-H ) :   0.9095
B( 30-C , 33-H ) :   0.9059 B( 30-C , 34-C ) :   0.8945 B( 34-C , 35-N ) :   2.7417

MP2 TOTAL ENERGY:     -794.957518647 Eh
FINAL SINGLE POINT ENERGY      -794.957518646971

DIPOLE MOMENT
-------------
                                X             Y             Z
Electronic contribution:     -0.14488       0.19551       0.01755
Nuclear contribution   :      0.27753      -0.20351      -0.14996
                        -----------------------------------------
Total Dipole Moment    :      0.13265      -0.00799      -0.13241
                        -----------------------------------------
Magnitude (a.u.)       :      0.18760
Magnitude (Debye)      :      0.47683

Rotational constants in cm-1:     0.015307     0.008438     0.007744
Rotational constants in MHz :   458.887557   252.970219   232.164204

                             ****ORCA TERMINATED NORMALLY****
TOTAL RUN TIME: 0 days 1 hours 5 minutes 30 seconds 123 msec
