                         Program Version 4.2.0 -  RELEASE  -
|  1> # 12h2o.su.etal.mol1,4,5,6,9,10
|  2> ! MP2 def2-TZVP EnGrad TightSCF
|  3>
|  4> %pal
|  5>     nprocs 6
|  6> end
|  7>
|  8> %maxcore 8000
|  9>
| 10> %scf
| 11>     ConvForced true
| 12> end
| 13>
| 14> *xyz 0 1
| 15> O  -1.794470000  -0.923410000   2.768350000
| 16> H  -2.338250000  -1.359750000   3.430940000
| 17> H  -0.879480000  -1.303000000   2.865760000
| 18> O  -0.885520000   1.737840000   0.052730000
| 19> H  -1.032320000   2.090180000  -0.841890000
| 20> H  -1.284090000   0.839590000   0.017130000
| 21> O   0.885520000  -1.737840000   0.052730000
| 22> H   1.284090000  -0.839590000   0.017130000
| 23> H   1.032320000  -2.090180000  -0.841890000
| 24> O   1.737840000   0.885520000  -0.052730000
| 25> H   2.090180000   1.032320000   0.841890000
| 26> H   0.839590000   1.284090000  -0.017130000
| 27> O   0.741530000  -1.752130000   2.896280000
| 28> H   0.920500000  -2.036450000   1.984040000
| 29> H   1.242140000  -0.921210000   2.984230000
| 30> O  -0.923410000   1.794470000  -2.768350000
| 31> H  -1.359750000   2.338250000  -3.430940000
| 32> H  -1.303000000   0.879480000  -2.865760000
| 33> *
| 34>
| 35>                          ****END OF INPUT****

CARTESIAN COORDINATES (ANGSTROEM)
---------------------------------
  O     -1.794470   -0.923410    2.768350
  H     -2.338250   -1.359750    3.430940
  H     -0.879480   -1.303000    2.865760
  O     -0.885520    1.737840    0.052730
  H     -1.032320    2.090180   -0.841890
  H     -1.284090    0.839590    0.017130
  O      0.885520   -1.737840    0.052730
  H      1.284090   -0.839590    0.017130
  H      1.032320   -2.090180   -0.841890
  O      1.737840    0.885520   -0.052730
  H      2.090180    1.032320    0.841890
  H      0.839590    1.284090   -0.017130
  O      0.741530   -1.752130    2.896280
  H      0.920500   -2.036450    1.984040
  H      1.242140   -0.921210    2.984230
  O     -0.923410    1.794470   -2.768350
  H     -1.359750    2.338250   -3.430940
  H     -1.303000    0.879480   -2.865760

 Total Charge           Charge          ....    0
 Multiplicity           Mult            ....    1
 Number of Electrons    NEL             ....   60
 Basis Dimension        Dim             ....  258

ORBITAL ENERGIES
----------------

  NO   OCC          E(Eh)            E(eV)
   0   2.0000     -20.600875      -560.5783
   1   2.0000     -20.563376      -559.5579
   2   2.0000     -20.561683      -559.5118
   3   2.0000     -20.560698      -559.4850
   4   2.0000     -20.552680      -559.2669
   5   2.0000     -20.505052      -557.9708
   6   2.0000      -1.379162       -37.5289
   7   2.0000      -1.356349       -36.9081
   8   2.0000      -1.351205       -36.7682
   9   2.0000      -1.340699       -36.4823
  10   2.0000      -1.329881       -36.1879
  11   2.0000      -1.286996       -35.0209
  12   2.0000      -0.745757       -20.2931
  13   2.0000      -0.716016       -19.4838
  14   2.0000      -0.713100       -19.4044
  15   2.0000      -0.709222       -19.2989
  16   2.0000      -0.702908       -19.1271
  17   2.0000      -0.674837       -18.3632
  18   2.0000      -0.621649       -16.9159
  19   2.0000      -0.611291       -16.6341
  20   2.0000      -0.594554       -16.1787
  21   2.0000      -0.578668       -15.7464
  22   2.0000      -0.568079       -15.4582
  23   2.0000      -0.538907       -14.6644
  24   2.0000      -0.535610       -14.5747
  25   2.0000      -0.507497       -13.8097
  26   2.0000      -0.504279       -13.7221
  27   2.0000      -0.500439       -13.6176
  28   2.0000      -0.490631       -13.3508
  29   2.0000      -0.455571       -12.3967
  30   0.0000       0.091231         2.4825
  31   0.0000       0.114896         3.1265
  32   0.0000       0.149069         4.0564
  33   0.0000       0.172886         4.7045
  34   0.0000       0.177917         4.8414

MULLIKEN ATOMIC CHARGES
-----------------------
   0 O :   -0.736244
   1 H :    0.320184
   2 H :    0.370426
   3 O :   -0.703084
   4 H :    0.376263
   5 H :    0.356938
   6 O :   -0.731607
   7 H :    0.353292
   8 H :    0.339322
   9 O :   -0.710206
  10 H :    0.337413
  11 H :    0.380944
  12 O :   -0.692252
  13 H :    0.388812
  14 H :    0.334294
  15 O :   -0.695255
  16 H :    0.356198
  17 H :    0.354562
Sum of atomic charges:    0.0000000

LOEWDIN ATOMIC CHARGES
----------------------
   0 O :   -0.375017
   1 H :    0.146501
   2 H :    0.142935
   3 O :   -0.294787
   4 H :    0.152501
   5 H :    0.176715
   6 O :   -0.344244
   7 H :    0.141612
   8 H :    0.163935
   9 O :   -0.308513
  10 H :    0.160933
  11 H :    0.148407
  12 O :   -0.277166
  13 H :    0.160306
  14 H :    0.164339
  15 O :   -0.309639
  16 H :    0.165397
  17 H :    0.185785

  Mayer bond orders larger than 0.100000
B(  0-O ,  1-H ) :   0.8629 B(  0-O ,  2-H ) :   0.7773 B(  3-O ,  4-H ) :   0.8047
B(  3-O ,  5-H ) :   0.8296 B(  3-O , 11-H ) :   0.1016 B(  6-O ,  7-H ) :   0.7670
B(  6-O ,  8-H ) :   0.8496 B(  7-H ,  9-O ) :   0.1102 B(  9-O , 10-H ) :   0.8490
B(  9-O , 11-H ) :   0.7612 B( 12-O , 13-H ) :   0.7945 B( 12-O , 14-H ) :   0.8503
B( 15-O , 16-H ) :   0.8396 B( 15-O , 17-H ) :   0.8344

MP2 TOTAL ENERGY:     -457.924900524 Eh
FINAL SINGLE POINT ENERGY      -457.924900524201

DIPOLE MOMENT
-------------
                                X             Y             Z
Electronic contribution:      0.11591       0.32194      -0.21118
Nuclear contribution   :     -0.25891      -0.07922      -1.46039
                        -----------------------------------------
Total Dipole Moment    :     -0.14299       0.24272      -1.67157
                        -----------------------------------------
Magnitude (a.u.)       :      1.69514
Magnitude (Debye)      :      4.30870

Rotational constants in cm-1:     0.065441     0.026072     0.022192
Rotational constants in MHz :  1961.870871   781.614328   665.311939

                             ****ORCA TERMINATED NORMALLY****
TOTAL RUN TIME: 0 days 0 hours 1 minutes 6 seconds 913 msec
