                         Program Version 4.2.0 -  RELEASE  -
|  1> # 12meoh.boyd.etal.mol6,7,8
|  2> ! MP2 def2-TZVP EnGrad TightSCF
|  3>
|  4> %pal
|  5>     nprocs 6
|  6> end
|  7>
|  8> %maxcore 8000
|  9>
| 10> %scf
| 11>     ConvForced true
| 12> end
| 13>
| 14> *xyz 0 1
| 15> O   2.622209273  -1.703002590  -1.445859723
| 16> H   1.828551432  -1.986513781  -0.909754968
| 17> C   2.781117675  -2.615822239  -2.525472890
| 18> H   3.691063626  -2.339003544  -3.065143454
| 19> H   1.934727323  -2.559520367  -3.223226661
| 20> H   2.879948338  -3.653846211  -2.177750170
| 21> O   4.310535586  -1.588322800   0.656128299
| 22> H   3.804372199  -1.630404735  -0.196849819
| 23> C   4.312298137  -2.894980854   1.222112691
| 24> H   4.713177833  -2.819907076   2.237066773
| 25> H   4.957796734  -3.574699304   0.648211180
| 26> H   3.302735989  -3.324433205   1.269756773
| 27> O   3.570084754   2.361662577  -0.202416728
| 28> H   3.393280933   1.755669977   0.560634073
| 29> C   4.368082883   1.644741793  -1.143112807
| 30> H   4.552851717   2.311801738  -1.989632421
| 31> H   3.862427494   0.740851663  -1.508095690
| 32> H   5.333949674   1.357289092  -0.706288100
| 33> *
| 34>
| 35>                          ****END OF INPUT****

CARTESIAN COORDINATES (ANGSTROEM)
---------------------------------
  O      2.622209   -1.703003   -1.445860
  H      1.828551   -1.986514   -0.909755
  C      2.781118   -2.615822   -2.525473
  H      3.691064   -2.339004   -3.065143
  H      1.934727   -2.559520   -3.223227
  H      2.879948   -3.653846   -2.177750
  O      4.310536   -1.588323    0.656128
  H      3.804372   -1.630405   -0.196850
  C      4.312298   -2.894981    1.222113
  H      4.713178   -2.819907    2.237067
  H      4.957797   -3.574699    0.648211
  H      3.302736   -3.324433    1.269757
  O      3.570085    2.361663   -0.202417
  H      3.393281    1.755670    0.560634
  C      4.368083    1.644742   -1.143113
  H      4.552852    2.311802   -1.989632
  H      3.862427    0.740852   -1.508096
  H      5.333950    1.357289   -0.706288

 Total Charge           Charge          ....    0
 Multiplicity           Mult            ....    1
 Number of Electrons    NEL             ....   54
 Basis Dimension        Dim             ....  258

ORBITAL ENERGIES
----------------

  NO   OCC          E(Eh)            E(eV)
   0   2.0000     -20.598249      -560.5068
   1   2.0000     -20.537570      -558.8557
   2   2.0000     -20.529299      -558.6306
   3   2.0000     -11.297869      -307.4306
   4   2.0000     -11.263869      -306.5055
   5   2.0000     -11.250608      -306.1446
   6   2.0000      -1.390580       -37.8396
   7   2.0000      -1.327033       -36.1104
   8   2.0000      -1.326040       -36.0834
   9   2.0000      -0.950125       -25.8542
  10   2.0000      -0.910066       -24.7642
  11   2.0000      -0.899565       -24.4784
  12   2.0000      -0.719445       -19.5771
  13   2.0000      -0.689194       -18.7539
  14   2.0000      -0.661841       -18.0096
  15   2.0000      -0.641538       -17.4571
  16   2.0000      -0.621288       -16.9061
  17   2.0000      -0.605538       -16.4775
  18   2.0000      -0.596186       -16.2231
  19   2.0000      -0.576130       -15.6773
  20   2.0000      -0.570298       -15.5186
  21   2.0000      -0.534957       -14.5569
  22   2.0000      -0.500484       -13.6189
  23   2.0000      -0.481514       -13.1027
  24   2.0000      -0.468161       -12.7393
  25   2.0000      -0.431780       -11.7493
  26   2.0000      -0.429586       -11.6896
  27   0.0000       0.105718         2.8767
  28   0.0000       0.148235         4.0337
  29   0.0000       0.161592         4.3972
  30   0.0000       0.170718         4.6455
  31   0.0000       0.188247         5.1225

MULLIKEN ATOMIC CHARGES
-----------------------
   0 O :   -0.518444
   1 H :    0.342578
   2 C :   -0.187559
   3 H :    0.145613
   4 H :    0.131241
   5 H :    0.127375
   6 O :   -0.526127
   7 H :    0.355003
   8 C :   -0.181332
   9 H :    0.129198
  10 H :    0.105131
  11 H :    0.085453
  12 O :   -0.512043
  13 H :    0.325719
  14 C :   -0.167086
  15 H :    0.120290
  16 H :    0.110202
  17 H :    0.114788
Sum of atomic charges:   -0.0000000

LOEWDIN ATOMIC CHARGES
----------------------
   0 O :   -0.072494
   1 H :    0.202376
   2 C :   -0.374591
   3 H :    0.116289
   4 H :    0.105702
   5 H :    0.101800
   6 O :   -0.121153
   7 H :    0.157623
   8 C :   -0.394848
   9 H :    0.108299
  10 H :    0.093168
  11 H :    0.087262
  12 O :   -0.114571
  13 H :    0.188851
  14 C :   -0.382193
  15 H :    0.105693
  16 H :    0.094620
  17 H :    0.098167

  Mayer bond orders larger than 0.100000
B(  0-O ,  1-H ) :   0.8260 B(  0-O ,  2-C ) :   0.8703 B(  2-C ,  3-H ) :   0.9394
B(  2-C ,  4-H ) :   0.9353 B(  2-C ,  5-H ) :   0.9346 B(  6-O ,  7-H ) :   0.7882
B(  6-O ,  8-C ) :   0.9421 B(  8-C ,  9-H ) :   0.9420 B(  8-C , 10-H ) :   0.9411
B(  8-C , 11-H ) :   0.9359 B( 12-O , 13-H ) :   0.8405 B( 12-O , 14-C ) :   0.9206
B( 14-C , 15-H ) :   0.9355 B( 14-C , 16-H ) :   0.9390 B( 14-C , 17-H ) :   0.9414

MP2 TOTAL ENERGY:     -346.532354098 Eh
FINAL SINGLE POINT ENERGY      -346.532354097533

DIPOLE MOMENT
-------------
                                X             Y             Z
Electronic contribution:     -1.18770       3.84135       1.49181
Nuclear contribution   :      0.48507      -5.69227      -2.12021
                        -----------------------------------------
Total Dipole Moment    :     -0.70263      -1.85091      -0.62840
                        -----------------------------------------
Magnitude (a.u.)       :      2.07713
Magnitude (Debye)      :      5.27964

Rotational constants in cm-1:     0.078373     0.039065     0.028121
Rotational constants in MHz :  2349.560215  1171.151939   843.046038

                             ****ORCA TERMINATED NORMALLY****
TOTAL RUN TIME: 0 days 0 hours 1 minutes 23 seconds 550 msec
