                         Program Version 4.2.0 -  RELEASE  -
|  1> ! MP2 def2-TZVP EnGrad TightSCF FrozenCore
|  2>
|  3> %pal
|  4>     nprocs 8
|  5> end
|  6>
|  7> %maxcore 8000
|  8>
|  9> %scf
| 10>     ConvForced true
| 11> end
| 12>
| 13> *xyz 0 1
| 14> O          0.00000        0.00000        0.00000
| 15> H          0.96500        0.00000        0.00000
| 16> H         -0.25436        0.00000       -0.95728
| 17> O         -0.86018       -0.27253       -2.54577
| 18> H         -1.35433        0.41704       -3.00550
| 19> H         -1.51187       -1.00697       -2.40733
| 20> O         -2.51837       -2.30094       -1.85398
| 21> H         -2.22561       -2.43885       -0.93616
| 22> H         -3.44839       -2.00755       -1.75125
| 23> O         -5.04657       -1.24635       -1.25628
| 24> H         -5.84951       -1.78102       -1.23100
| 25> H         -4.84227       -1.05305       -0.31500
| 26> O         -4.12061       -0.83853        1.32439
| 27> H         -4.02638        0.05391        1.67976
| 28> H         -3.20647       -1.19131        1.28598
| 29> O         -1.60452       -1.96714        0.91005
| 30> H         -1.17892       -2.57720        1.52448
| 31> H         -0.91661       -1.29426        0.67488
| 32> *
| 33>
| 34>
| 35>                          ****END OF INPUT****

CARTESIAN COORDINATES (ANGSTROEM)
---------------------------------
  O      0.000000    0.000000    0.000000
  H      0.965000    0.000000    0.000000
  H     -0.254360    0.000000   -0.957280
  O     -0.860180   -0.272530   -2.545770
  H     -1.354330    0.417040   -3.005500
  H     -1.511870   -1.006970   -2.407330
  O     -2.518370   -2.300940   -1.853980
  H     -2.225610   -2.438850   -0.936160
  H     -3.448390   -2.007550   -1.751250
  O     -5.046570   -1.246350   -1.256280
  H     -5.849510   -1.781020   -1.231000
  H     -4.842270   -1.053050   -0.315000
  O     -4.120610   -0.838530    1.324390
  H     -4.026380    0.053910    1.679760
  H     -3.206470   -1.191310    1.285980
  O     -1.604520   -1.967140    0.910050
  H     -1.178920   -2.577200    1.524480
  H     -0.916610   -1.294260    0.674880

 Total Charge           Charge          ....    0
 Multiplicity           Mult            ....    1
 Number of Electrons    NEL             ....   60
 Basis Dimension        Dim             ....  258

ORBITAL ENERGIES
----------------

  NO   OCC          E(Eh)            E(eV)
   0   2.0000     -20.574658      -559.8649
   1   2.0000     -20.561026      -559.4940
   2   2.0000     -20.560283      -559.4737
   3   2.0000     -20.550284      -559.2017
   4   2.0000     -20.548780      -559.1607
   5   2.0000     -20.535225      -558.7919
   6   2.0000      -1.368345       -37.2346
   7   2.0000      -1.351466       -36.7753
   8   2.0000      -1.346871       -36.6502
   9   2.0000      -1.337183       -36.3866
  10   2.0000      -1.332226       -36.2517
  11   2.0000      -1.316000       -35.8102
  12   2.0000      -0.739326       -20.1181
  13   2.0000      -0.721925       -19.6446
  14   2.0000      -0.718494       -19.5512
  15   2.0000      -0.709874       -19.3167
  16   2.0000      -0.704521       -19.1710
  17   2.0000      -0.690615       -18.7926
  18   2.0000      -0.627732       -17.0815
  19   2.0000      -0.604306       -16.4440
  20   2.0000      -0.588937       -16.0258
  21   2.0000      -0.580521       -15.7968
  22   2.0000      -0.566644       -15.4192
  23   2.0000      -0.547545       -14.8995
  24   2.0000      -0.521947       -14.2029
  25   2.0000      -0.508961       -13.8495
  26   2.0000      -0.507329       -13.8051
  27   2.0000      -0.499514       -13.5925
  28   2.0000      -0.494913       -13.4673
  29   2.0000      -0.481389       -13.0993
  30   0.0000       0.113795         3.0965
  31   0.0000       0.145494         3.9591
  32   0.0000       0.152170         4.1407
  33   0.0000       0.166719         4.5367
  34   0.0000       0.171601         4.6695

MULLIKEN ATOMIC CHARGES
-----------------------
   0 O :   -0.735012
   1 H :    0.345134
   2 H :    0.392232
   3 O :   -0.738077
   4 H :    0.343580
   5 H :    0.395631
   6 O :   -0.741089
   7 H :    0.359408
   8 H :    0.385292
   9 O :   -0.728058
  10 H :    0.342503
  11 H :    0.381099
  12 O :   -0.724997
  13 H :    0.346681
  14 H :    0.381979
  15 O :   -0.749347
  16 H :    0.352668
  17 H :    0.390372
Sum of atomic charges:    0.0000000

LOEWDIN ATOMIC CHARGES
----------------------
   0 O :   -0.313650
   1 H :    0.160889
   2 H :    0.152788
   3 O :   -0.314289
   4 H :    0.159914
   5 H :    0.153257
   6 O :   -0.307400
   7 H :    0.147770
   8 H :    0.151153
   9 O :   -0.317623
  10 H :    0.160448
  11 H :    0.150940
  12 O :   -0.310527
  13 H :    0.162890
  14 H :    0.152046
  15 O :   -0.304310
  16 H :    0.163010
  17 H :    0.152693

  Mayer bond orders larger than 0.100000
B(  0-O ,  1-H ) :   0.8454 B(  0-O ,  2-H ) :   0.7455 B(  0-O , 17-H ) :   0.1048
B(  2-H ,  3-O ) :   0.1081 B(  3-O ,  4-H ) :   0.8453 B(  3-O ,  5-H ) :   0.7451
B(  5-H ,  6-O ) :   0.1038 B(  6-O ,  7-H ) :   0.8161 B(  6-O ,  8-H ) :   0.7791
B(  9-O , 10-H ) :   0.8473 B(  9-O , 11-H ) :   0.7765 B( 12-O , 13-H ) :   0.8450
B( 12-O , 14-H ) :   0.7802 B( 15-O , 16-H ) :   0.8393 B( 15-O , 17-H ) :   0.7394

MP2 TOTAL ENERGY:     -457.959539372 Eh
FINAL SINGLE POINT ENERGY      -457.959539371510

DIPOLE MOMENT
-------------
                                X             Y             Z
Electronic contribution:     -0.03027      -0.04008      -0.12717
Nuclear contribution   :      0.37521       0.30941       1.16927
                        -----------------------------------------
Total Dipole Moment    :      0.34494       0.26932       1.04210
                        -----------------------------------------
Magnitude (a.u.)       :      1.13026
Magnitude (Debye)      :      2.87290

Rotational constants in cm-1:     0.060286     0.039347     0.029212
Rotational constants in MHz :  1807.327272  1179.589191   875.761821

                             ****ORCA TERMINATED NORMALLY****
TOTAL RUN TIME: 0 days 0 hours 1 minutes 4 seconds 641 msec
