                         Program Version 4.2.0 -  RELEASE  -
|  1> # 12h2o.su.etal.mol0,2,7,8,10,11
|  2> ! MP2 def2-TZVP EnGrad TightSCF
|  3>
|  4> %pal
|  5>     nprocs 6
|  6> end
|  7>
|  8> %maxcore 8000
|  9>
| 10> %scf
| 11>     ConvForced true
| 12> end
| 13>
| 14> *xyz 0 1
| 15> O   1.794470000   0.923410000   2.768350000
| 16> H   2.338250000   1.359750000   3.430940000
| 17> H   0.879480000   1.303000000   2.865760000
| 18> O   0.923410000  -1.794470000  -2.768350000
| 19> H   1.359750000  -2.338250000  -3.430940000
| 20> H   1.303000000  -0.879480000  -2.865760000
| 21> O  -1.737840000  -0.885520000  -0.052730000
| 22> H  -2.090180000  -1.032320000   0.841890000
| 23> H  -0.839590000  -1.284090000  -0.017130000
| 24> O   1.752130000   0.741530000  -2.896280000
| 25> H   2.036450000   0.920500000  -1.984040000
| 26> H   0.921210000   1.242140000  -2.984230000
| 27> O  -0.923410000   1.794470000  -2.768350000
| 28> H  -1.359750000   2.338250000  -3.430940000
| 29> H  -1.303000000   0.879480000  -2.865760000
| 30> O  -0.741530000   1.752130000   2.896280000
| 31> H  -0.920500000   2.036450000   1.984040000
| 32> H  -1.242140000   0.921210000   2.984230000
| 33> *
| 34>
| 35>                          ****END OF INPUT****

CARTESIAN COORDINATES (ANGSTROEM)
---------------------------------
  O      1.794470    0.923410    2.768350
  H      2.338250    1.359750    3.430940
  H      0.879480    1.303000    2.865760
  O      0.923410   -1.794470   -2.768350
  H      1.359750   -2.338250   -3.430940
  H      1.303000   -0.879480   -2.865760
  O     -1.737840   -0.885520   -0.052730
  H     -2.090180   -1.032320    0.841890
  H     -0.839590   -1.284090   -0.017130
  O      1.752130    0.741530   -2.896280
  H      2.036450    0.920500   -1.984040
  H      0.921210    1.242140   -2.984230
  O     -0.923410    1.794470   -2.768350
  H     -1.359750    2.338250   -3.430940
  H     -1.303000    0.879480   -2.865760
  O     -0.741530    1.752130    2.896280
  H     -0.920500    2.036450    1.984040
  H     -1.242140    0.921210    2.984230

 Total Charge           Charge          ....    0
 Multiplicity           Mult            ....    1
 Number of Electrons    NEL             ....   60
 Basis Dimension        Dim             ....  258

ORBITAL ENERGIES
----------------

  NO   OCC          E(Eh)            E(eV)
   0   2.0000     -20.599625      -560.5443
   1   2.0000     -20.588461      -560.2405
   2   2.0000     -20.567216      -559.6624
   3   2.0000     -20.563495      -559.5612
   4   2.0000     -20.520743      -558.3978
   5   2.0000     -20.514419      -558.2257
   6   2.0000      -1.384865       -37.6841
   7   2.0000      -1.367484       -37.2111
   8   2.0000      -1.351029       -36.7634
   9   2.0000      -1.342998       -36.5448
  10   2.0000      -1.303118       -35.4596
  11   2.0000      -1.296187       -35.2710
  12   2.0000      -0.742441       -20.2028
  13   2.0000      -0.734369       -19.9832
  14   2.0000      -0.712451       -19.3868
  15   2.0000      -0.704642       -19.1743
  16   2.0000      -0.694027       -18.8854
  17   2.0000      -0.683507       -18.5992
  18   2.0000      -0.619921       -16.8689
  19   2.0000      -0.612842       -16.6763
  20   2.0000      -0.586109       -15.9488
  21   2.0000      -0.583066       -15.8660
  22   2.0000      -0.560619       -15.2552
  23   2.0000      -0.545330       -14.8392
  24   2.0000      -0.528327       -14.3765
  25   2.0000      -0.517142       -14.0721
  26   2.0000      -0.509815       -13.8728
  27   2.0000      -0.496462       -13.5094
  28   2.0000      -0.471145       -12.8205
  29   2.0000      -0.465144       -12.6572
  30   0.0000       0.086884         2.3642
  31   0.0000       0.115804         3.1512
  32   0.0000       0.151013         4.1093
  33   0.0000       0.152671         4.1544
  34   0.0000       0.177489         4.8297

MULLIKEN ATOMIC CHARGES
-----------------------
   0 O :   -0.733056
   1 H :    0.326440
   2 H :    0.363537
   3 O :   -0.738685
   4 H :    0.324850
   5 H :    0.365472
   6 O :   -0.683513
   7 H :    0.323593
   8 H :    0.361417
   9 O :   -0.703494
  10 H :    0.357092
  11 H :    0.372589
  12 O :   -0.705950
  13 H :    0.351981
  14 H :    0.377585
  15 O :   -0.676320
  16 H :    0.365514
  17 H :    0.350946
Sum of atomic charges:   -0.0000000

LOEWDIN ATOMIC CHARGES
----------------------
   0 O :   -0.373024
   1 H :    0.149088
   2 H :    0.141215
   3 O :   -0.376195
   4 H :    0.148585
   5 H :    0.141186
   6 O :   -0.337996
   7 H :    0.158266
   8 H :    0.181252
   9 O :   -0.284257
  10 H :    0.172777
  11 H :    0.153005
  12 O :   -0.312103
  13 H :    0.163657
  14 H :    0.194300
  15 O :   -0.269331
  16 H :    0.177319
  17 H :    0.172257

  Mayer bond orders larger than 0.100000
B(  0-O ,  1-H ) :   0.8601 B(  0-O ,  2-H ) :   0.7892 B(  3-O ,  4-H ) :   0.8606
B(  3-O ,  5-H ) :   0.7747 B(  6-O ,  7-H ) :   0.8592 B(  6-O ,  8-H ) :   0.8329
B(  9-O , 10-H ) :   0.8382 B(  9-O , 11-H ) :   0.7977 B( 12-O , 13-H ) :   0.8417
B( 12-O , 14-H ) :   0.8164 B( 15-O , 16-H ) :   0.8316 B( 15-O , 17-H ) :   0.8401

MP2 TOTAL ENERGY:     -457.909149791 Eh
FINAL SINGLE POINT ENERGY      -457.909149791462

DIPOLE MOMENT
-------------
                                X             Y             Z
Electronic contribution:     -0.25391       0.39010      -0.07680
Nuclear contribution   :     -0.87521       0.33589       0.14168
                        -----------------------------------------
Total Dipole Moment    :     -1.12912       0.72599       0.06489
                        -----------------------------------------
Magnitude (a.u.)       :      1.34394
Magnitude (Debye)      :      3.41604

Rotational constants in cm-1:     0.045143     0.018836     0.018038
Rotational constants in MHz :  1353.362108   564.695029   540.771647

                             ****ORCA TERMINATED NORMALLY****
TOTAL RUN TIME: 0 days 0 hours 0 minutes 45 seconds 431 msec
