                         Program Version 4.2.0 -  RELEASE  -
|  1> # 12h2o.su.etal.mol0,1,2,3,5,8
|  2> ! MP2 def2-TZVP EnGrad TightSCF
|  3>
|  4> %pal
|  5>     nprocs 6
|  6> end
|  7>
|  8> %maxcore 8000
|  9>
| 10> %scf
| 11>     ConvForced true
| 12> end
| 13>
| 14> *xyz 0 1
| 15> O   1.794470000   0.923410000   2.768350000
| 16> H   2.338250000   1.359750000   3.430940000
| 17> H   0.879480000   1.303000000   2.865760000
| 18> O  -1.794470000  -0.923410000   2.768350000
| 19> H  -2.338250000  -1.359750000   3.430940000
| 20> H  -0.879480000  -1.303000000   2.865760000
| 21> O   0.923410000  -1.794470000  -2.768350000
| 22> H   1.359750000  -2.338250000  -3.430940000
| 23> H   1.303000000  -0.879480000  -2.865760000
| 24> O  -1.752130000  -0.741530000  -2.896280000
| 25> H  -2.036450000  -0.920500000  -1.984040000
| 26> H  -0.921210000  -1.242140000  -2.984230000
| 27> O   0.885520000  -1.737840000   0.052730000
| 28> H   1.284090000  -0.839590000   0.017130000
| 29> H   1.032320000  -2.090180000  -0.841890000
| 30> O   1.752130000   0.741530000  -2.896280000
| 31> H   2.036450000   0.920500000  -1.984040000
| 32> H   0.921210000   1.242140000  -2.984230000
| 33> *
| 34>
| 35>                          ****END OF INPUT****

CARTESIAN COORDINATES (ANGSTROEM)
---------------------------------
  O      1.794470    0.923410    2.768350
  H      2.338250    1.359750    3.430940
  H      0.879480    1.303000    2.865760
  O     -1.794470   -0.923410    2.768350
  H     -2.338250   -1.359750    3.430940
  H     -0.879480   -1.303000    2.865760
  O      0.923410   -1.794470   -2.768350
  H      1.359750   -2.338250   -3.430940
  H      1.303000   -0.879480   -2.865760
  O     -1.752130   -0.741530   -2.896280
  H     -2.036450   -0.920500   -1.984040
  H     -0.921210   -1.242140   -2.984230
  O      0.885520   -1.737840    0.052730
  H      1.284090   -0.839590    0.017130
  H      1.032320   -2.090180   -0.841890
  O      1.752130    0.741530   -2.896280
  H      2.036450    0.920500   -1.984040
  H      0.921210    1.242140   -2.984230

 Total Charge           Charge          ....    0
 Multiplicity           Mult            ....    1
 Number of Electrons    NEL             ....   60
 Basis Dimension        Dim             ....  258

ORBITAL ENERGIES
----------------

  NO   OCC          E(Eh)            E(eV)
   0   2.0000     -20.610978      -560.8532
   1   2.0000     -20.569742      -559.7311
   2   2.0000     -20.567488      -559.6698
   3   2.0000     -20.552197      -559.2537
   4   2.0000     -20.532449      -558.7163
   5   2.0000     -20.526172      -558.5455
   6   2.0000      -1.397157       -38.0186
   7   2.0000      -1.353873       -36.8408
   8   2.0000      -1.345026       -36.6000
   9   2.0000      -1.327563       -36.1248
  10   2.0000      -1.311170       -35.6788
  11   2.0000      -1.308312       -35.6010
  12   2.0000      -0.753153       -20.4943
  13   2.0000      -0.736120       -20.0308
  14   2.0000      -0.713334       -19.4108
  15   2.0000      -0.695472       -18.9248
  16   2.0000      -0.681722       -18.5506
  17   2.0000      -0.677887       -18.4463
  18   2.0000      -0.637628       -17.3508
  19   2.0000      -0.598109       -16.2754
  20   2.0000      -0.581561       -15.8251
  21   2.0000      -0.564314       -15.3558
  22   2.0000      -0.563101       -15.3228
  23   2.0000      -0.552161       -15.0251
  24   2.0000      -0.535686       -14.5768
  25   2.0000      -0.513238       -13.9659
  26   2.0000      -0.508801       -13.8452
  27   2.0000      -0.495552       -13.4846
  28   2.0000      -0.477924       -13.0050
  29   2.0000      -0.473947       -12.8967
  30   0.0000       0.090192         2.4542
  31   0.0000       0.117733         3.2037
  32   0.0000       0.145064         3.9474
  33   0.0000       0.151172         4.1136
  34   0.0000       0.170862         4.6494

MULLIKEN ATOMIC CHARGES
-----------------------
   0 O :   -0.691070
   1 H :    0.340277
   2 H :    0.352209
   3 O :   -0.693242
   4 H :    0.334420
   5 H :    0.357913
   6 O :   -0.746287
   7 H :    0.349590
   8 H :    0.379285
   9 O :   -0.719576
  10 H :    0.340642
  11 H :    0.359352
  12 O :   -0.690814
  13 H :    0.313471
  14 H :    0.364396
  15 O :   -0.683993
  16 H :    0.357857
  17 H :    0.375571
Sum of atomic charges:   -0.0000000

LOEWDIN ATOMIC CHARGES
----------------------
   0 O :   -0.341023
   1 H :    0.158840
   2 H :    0.183735
   3 O :   -0.342646
   4 H :    0.156102
   5 H :    0.185066
   6 O :   -0.311515
   7 H :    0.158855
   8 H :    0.145411
   9 O :   -0.352339
  10 H :    0.164410
  11 H :    0.145219
  12 O :   -0.344311
  13 H :    0.157925
  14 H :    0.147085
  15 O :   -0.266739
  16 H :    0.173155
  17 H :    0.182772

  Mayer bond orders larger than 0.100000
B(  0-O ,  1-H ) :   0.8517 B(  0-O ,  2-H ) :   0.8371 B(  3-O ,  4-H ) :   0.8551
B(  3-O ,  5-H ) :   0.8326 B(  6-O ,  7-H ) :   0.8408 B(  6-O ,  8-H ) :   0.7530
B(  9-O , 10-H ) :   0.8501 B(  9-O , 11-H ) :   0.8157 B( 12-O , 13-H ) :   0.8609
B( 12-O , 14-H ) :   0.8171 B( 15-O , 16-H ) :   0.8364 B( 15-O , 17-H ) :   0.8220

MP2 TOTAL ENERGY:     -457.908275604 Eh
FINAL SINGLE POINT ENERGY      -457.908275603675

DIPOLE MOMENT
-------------
                                X             Y             Z
Electronic contribution:      0.06738       0.08258      -0.36060
Nuclear contribution   :      1.13309       0.76337       1.23053
                        -----------------------------------------
Total Dipole Moment    :      1.20047       0.84595       0.86993
                        -----------------------------------------
Magnitude (a.u.)       :      1.70691
Magnitude (Debye)      :      4.33863

Rotational constants in cm-1:     0.045600     0.021165     0.017109
Rotational constants in MHz :  1367.067132   634.513489   512.916054

                             ****ORCA TERMINATED NORMALLY****
TOTAL RUN TIME: 0 days 0 hours 0 minutes 50 seconds 857 msec
