                         Program Version 4.2.0 -  RELEASE  -
|  1> ! MP2 def2-TZVP EnGrad TightSCF FrozenCore
|  2>
|  3> %pal
|  4>     nprocs 24
|  5> end
|  6>
|  7> %maxcore 8000
|  8>
|  9> %scf
| 10>     ConvForced true
| 11> end
| 12>
| 13> *xyz 0 1
| 14> O    -0.01751003     0.57324467    -1.88041768
| 15> H    -0.01751108    -0.35665916    -1.56650646
| 16> H    -0.90246837     0.72841828    -2.26052768
| 17> O     2.71097789    -1.00764992     2.45358399
| 18> H     3.09534015    -1.23777582     3.30440251
| 19> H     3.21783614    -0.21737120     2.12750606
| 20> O    -4.02892163    -1.12759782    -1.28466763
| 21> H    -3.62475238    -0.42084147    -1.81843744
| 22> H    -4.30212492    -0.67725294    -0.46594747
| 23> O    -2.70489614     1.13452577    -2.41161539
| 24> H    -2.80490665     1.64016854    -1.55956050
| 25> H    -3.07513918     1.69287470    -3.10155962
| 26> O     0.03664207    -0.55693921     1.84970688
| 27> H     0.93075980    -0.69218392     2.21935237
| 28> H     0.01473738     0.37306246     1.53633606
| 29> O     4.03056616     1.01373901     1.34823247
| 30> H     3.52108782     1.81315481     1.12600448
| 31> H     4.30130959     0.65662728     0.48392614
| 32> O    -2.50299851    -1.69239092     2.12640718
| 33> H    -1.60149538    -1.32616615     2.19217772
| 34> H    -2.45450324    -2.33052007     1.39511426
| 35> O     2.83814600    -2.26353612    -0.13873012
| 36> H     1.89981118    -2.28679177    -0.40279642
| 37> H     2.81341095    -2.05153923     0.80943801
| 38> O    -2.41422835    -3.05294298    -0.41554159
| 39> H    -2.72900063    -3.91966469    -0.68754806
| 40> H    -3.03456612    -2.39268992    -0.82215919
| 41> O     2.51572336     1.77895474    -2.00085796
| 42> H     1.65242920     1.35219162    -2.14948842
| 43> H     3.13952890     1.04238433    -1.86803209
| 44> O     2.39416562     3.09450276     0.29558009
| 45> H     2.63524331     4.02187878     0.21438078
| 46> H     2.47045261     2.70530808    -0.61754650
| 47> O    -0.11879678     1.86341209     0.55878718
| 48> H    -0.04240713     1.45794065    -0.33375043
| 49> H     0.65744122     2.45057343     0.61803040
| 50> O    -2.85689313     2.23501545    -0.00605384
| 51> H    -1.95010988     2.26613499     0.34855418
| 52> H    -3.33475390     1.59973201     0.55743665
| 53> O    -4.23893656     0.12309170     1.25905612
| 54> H    -4.96773943     0.22687949     1.87748583
| 55> H    -3.61605528    -0.53030149     1.67465357
| 56> O     4.26737543    -0.27342457    -1.17162040
| 57> H     3.75296787    -1.06726027    -0.86827457
| 58> H     5.02174209    -0.61607661    -1.65929984
| 59> O     0.09017475    -1.84611053    -0.58022569
| 60> H    -0.70280493    -2.41294365    -0.63476922
| 61> H     0.03166201    -1.43420184     0.31061075
| 62> *
| 63>
| 64>
| 65>                          ****END OF INPUT****

CARTESIAN COORDINATES (ANGSTROEM)
---------------------------------
  O     -0.017510    0.573245   -1.880418
  H     -0.017511   -0.356659   -1.566506
  H     -0.902468    0.728418   -2.260528
  O      2.710978   -1.007650    2.453584
  H      3.095340   -1.237776    3.304403
  H      3.217836   -0.217371    2.127506
  O     -4.028922   -1.127598   -1.284668
  H     -3.624752   -0.420841   -1.818437
  H     -4.302125   -0.677253   -0.465947
  O     -2.704896    1.134526   -2.411615
  H     -2.804907    1.640169   -1.559560
  H     -3.075139    1.692875   -3.101560
  O      0.036642   -0.556939    1.849707
  H      0.930760   -0.692184    2.219352
  H      0.014737    0.373062    1.536336
  O      4.030566    1.013739    1.348232
  H      3.521088    1.813155    1.126004
  H      4.301310    0.656627    0.483926
  O     -2.502999   -1.692391    2.126407
  H     -1.601495   -1.326166    2.192178
  H     -2.454503   -2.330520    1.395114
  O      2.838146   -2.263536   -0.138730
  H      1.899811   -2.286792   -0.402796
  H      2.813411   -2.051539    0.809438
  O     -2.414228   -3.052943   -0.415542
  H     -2.729001   -3.919665   -0.687548
  H     -3.034566   -2.392690   -0.822159
  O      2.515723    1.778955   -2.000858
  H      1.652429    1.352192   -2.149488
  H      3.139529    1.042384   -1.868032
  O      2.394166    3.094503    0.295580
  H      2.635243    4.021879    0.214381
  H      2.470453    2.705308   -0.617546
  O     -0.118797    1.863412    0.558787
  H     -0.042407    1.457941   -0.333750
  H      0.657441    2.450573    0.618030
  O     -2.856893    2.235015   -0.006054
  H     -1.950110    2.266135    0.348554
  H     -3.334754    1.599732    0.557437
  O     -4.238937    0.123092    1.259056
  H     -4.967739    0.226879    1.877486
  H     -3.616055   -0.530301    1.674654
  O      4.267375   -0.273425   -1.171620
  H      3.752968   -1.067260   -0.868275
  H      5.021742   -0.616077   -1.659300
  O      0.090175   -1.846111   -0.580226
  H     -0.702805   -2.412944   -0.634769
  H      0.031662   -1.434202    0.310611

 Total Charge           Charge          ....    0
 Multiplicity           Mult            ....    1
 Number of Electrons    NEL             ....  160
 Basis Dimension        Dim             ....  688

ORBITAL ENERGIES
----------------

  NO   OCC          E(Eh)            E(eV)
   0   2.0000     -20.568709      -559.7030
   1   2.0000     -20.568558      -559.6989
   2   2.0000     -20.568077      -559.6858
   3   2.0000     -20.567750      -559.6769
   4   2.0000     -20.565996      -559.6292
   5   2.0000     -20.565809      -559.6241
   6   2.0000     -20.556576      -559.3729
   7   2.0000     -20.555489      -559.3433
   8   2.0000     -20.555248      -559.3367
   9   2.0000     -20.554997      -559.3299
  10   2.0000     -20.549315      -559.1753
  11   2.0000     -20.549185      -559.1718
  12   2.0000     -20.547760      -559.1330
  13   2.0000     -20.547128      -559.1158
  14   2.0000     -20.545491      -559.0712
  15   2.0000     -20.544391      -559.0413
  16   2.0000      -1.372858       -37.3574
  17   2.0000      -1.367705       -37.2171
  18   2.0000      -1.364402       -37.1273
  19   2.0000      -1.360795       -37.0291
  20   2.0000      -1.360095       -37.0101
  21   2.0000      -1.359248       -36.9870
  22   2.0000      -1.355992       -36.8984
  23   2.0000      -1.346663       -36.6446
  24   2.0000      -1.344655       -36.5899
  25   2.0000      -1.340085       -36.4656
  26   2.0000      -1.337146       -36.3856
  27   2.0000      -1.335991       -36.3542
  28   2.0000      -1.332763       -36.2663
  29   2.0000      -1.327212       -36.1153
  30   2.0000      -1.325371       -36.0652
  31   2.0000      -1.324027       -36.0286
  32   2.0000      -0.738915       -20.1069
  33   2.0000      -0.738759       -20.1027
  34   2.0000      -0.738050       -20.0834
  35   2.0000      -0.735503       -20.0140
  36   2.0000      -0.732301       -19.9269
  37   2.0000      -0.731705       -19.9107
  38   2.0000      -0.728181       -19.8148
  39   2.0000      -0.725444       -19.7403
  40   2.0000      -0.721649       -19.6371
  41   2.0000      -0.718579       -19.5535
  42   2.0000      -0.713682       -19.4203
  43   2.0000      -0.709195       -19.2982
  44   2.0000      -0.708382       -19.2761
  45   2.0000      -0.707454       -19.2508
  46   2.0000      -0.704954       -19.1828
  47   2.0000      -0.703572       -19.1452
  48   2.0000      -0.647990       -17.6327
  49   2.0000      -0.642745       -17.4900
  50   2.0000      -0.634492       -17.2654
  51   2.0000      -0.616961       -16.7884
  52   2.0000      -0.608354       -16.5541
  53   2.0000      -0.602616       -16.3980
  54   2.0000      -0.600899       -16.3513
  55   2.0000      -0.598689       -16.2911
  56   2.0000      -0.587884       -15.9971
  57   2.0000      -0.582521       -15.8512
  58   2.0000      -0.576590       -15.6898
  59   2.0000      -0.571525       -15.5520
  60   2.0000      -0.567210       -15.4346
  61   2.0000      -0.558020       -15.1845
  62   2.0000      -0.552255       -15.0276
  63   2.0000      -0.537472       -14.6254
  64   2.0000      -0.518760       -14.1162
  65   2.0000      -0.517643       -14.0858
  66   2.0000      -0.515680       -14.0324
  67   2.0000      -0.514589       -14.0027
  68   2.0000      -0.514359       -13.9964
  69   2.0000      -0.512523       -13.9465
  70   2.0000      -0.509578       -13.8663
  71   2.0000      -0.507507       -13.8100
  72   2.0000      -0.502967       -13.6864
  73   2.0000      -0.500374       -13.6159
  74   2.0000      -0.499898       -13.6029
  75   2.0000      -0.499416       -13.5898
  76   2.0000      -0.496945       -13.5226
  77   2.0000      -0.496383       -13.5073
  78   2.0000      -0.495291       -13.4776
  79   2.0000      -0.493941       -13.4408
  80   0.0000       0.113159         3.0792
  81   0.0000       0.128808         3.5050
  82   0.0000       0.141624         3.8538
  83   0.0000       0.146682         3.9914
  84   0.0000       0.147210         4.0058

MULLIKEN ATOMIC CHARGES
-----------------------
   0 O :   -0.783259
   1 H :    0.395177
   2 H :    0.391535
   3 O :   -0.764873
   4 H :    0.354760
   5 H :    0.400408
   6 O :   -0.744475
   7 H :    0.383996
   8 H :    0.372298
   9 O :   -0.763733
  10 H :    0.392703
  11 H :    0.353932
  12 O :   -0.785308
  13 H :    0.393547
  14 H :    0.394510
  15 O :   -0.744464
  16 H :    0.385664
  17 H :    0.372386
  18 O :   -0.740816
  19 H :    0.400960
  20 H :    0.368300
  21 O :   -0.741924
  22 H :    0.396621
  23 H :    0.367953
  24 O :   -0.765798
  25 H :    0.354104
  26 H :    0.401148
  27 O :   -0.748388
  28 H :    0.395780
  29 H :    0.379656
  30 O :   -0.764181
  31 H :    0.352474
  32 H :    0.393299
  33 O :   -0.776540
  34 H :    0.359934
  35 H :    0.393650
  36 O :   -0.745211
  37 H :    0.388925
  38 H :    0.379548
  39 O :   -0.763621
  40 H :    0.353956
  41 H :    0.396351
  42 O :   -0.764700
  43 H :    0.399093
  44 H :    0.354040
  45 O :   -0.778502
  46 H :    0.393034
  47 H :    0.356052
Sum of atomic charges:   -0.0000000

LOEWDIN ATOMIC CHARGES
----------------------
   0 O :   -0.298708
   1 H :    0.147253
   2 H :    0.149198
   3 O :   -0.307186
   4 H :    0.161499
   5 H :    0.148622
   6 O :   -0.296533
   7 H :    0.150047
   8 H :    0.148443
   9 O :   -0.307146
  10 H :    0.146484
  11 H :    0.160911
  12 O :   -0.298196
  13 H :    0.147872
  14 H :    0.147096
  15 O :   -0.295546
  16 H :    0.150482
  17 H :    0.148305
  18 O :   -0.292752
  19 H :    0.151677
  20 H :    0.147563
  21 O :   -0.293988
  22 H :    0.152918
  23 H :    0.148388
  24 O :   -0.309296
  25 H :    0.161177
  26 H :    0.148799
  27 O :   -0.297035
  28 H :    0.151348
  29 H :    0.147694
  30 O :   -0.310178
  31 H :    0.160412
  32 H :    0.146080
  33 O :   -0.300131
  34 H :    0.140775
  35 H :    0.151622
  36 O :   -0.295702
  37 H :    0.151153
  38 H :    0.147656
  39 O :   -0.308481
  40 H :    0.160939
  41 H :    0.147895
  42 O :   -0.307864
  43 H :    0.148663
  44 H :    0.161047
  45 O :   -0.301469
  46 H :    0.149361
  47 H :    0.138832

  Mayer bond orders larger than 0.100000
B(  0-O ,  1-H ) :   0.7573 B(  0-O ,  2-H ) :   0.7754 B(  0-O , 34-H ) :   0.1048
B(  3-O ,  4-H ) :   0.8384 B(  3-O ,  5-H ) :   0.7209 B(  5-H , 15-O ) :   0.1151
B(  6-O ,  7-H ) :   0.7905 B(  6-O ,  8-H ) :   0.7952 B(  6-O , 26-H ) :   0.1116
B(  9-O , 10-H ) :   0.7176 B(  9-O , 11-H ) :   0.8380 B( 10-H , 36-O ) :   0.1239
B( 12-O , 13-H ) :   0.7693 B( 12-O , 14-H ) :   0.7568 B( 12-O , 47-H ) :   0.1077
B( 15-O , 16-H ) :   0.7892 B( 15-O , 17-H ) :   0.7948 B( 18-O , 19-H ) :   0.7846
B( 18-O , 20-H ) :   0.8029 B( 18-O , 41-H ) :   0.1205 B( 21-O , 22-H ) :   0.7843
B( 21-O , 23-H ) :   0.8030 B( 21-O , 43-H ) :   0.1165 B( 24-O , 25-H ) :   0.8390
B( 24-O , 26-H ) :   0.7233 B( 27-O , 28-H ) :   0.7882 B( 27-O , 29-H ) :   0.7891
B( 27-O , 32-H ) :   0.1192 B( 30-O , 31-H ) :   0.8387 B( 30-O , 32-H ) :   0.7197
B( 33-O , 34-H ) :   0.7524 B( 33-O , 35-H ) :   0.7796 B( 36-O , 37-H ) :   0.7884
B( 36-O , 38-H ) :   0.7880 B( 39-O , 40-H ) :   0.8388 B( 39-O , 41-H ) :   0.7213
B( 42-O , 43-H ) :   0.7222 B( 42-O , 44-H ) :   0.8388 B( 45-O , 46-H ) :   0.7747
B( 45-O , 47-H ) :   0.7521

MP2 TOTAL ENERGY:    -1221.299531832 Eh
FINAL SINGLE POINT ENERGY     -1221.299531831519

DIPOLE MOMENT
-------------
                                X             Y             Z
Electronic contribution:      0.00805      -0.02260       0.01360
Nuclear contribution   :     -0.00479       0.05435      -0.02001
                        -----------------------------------------
Total Dipole Moment    :      0.00326       0.03175      -0.00641
                        -----------------------------------------
Magnitude (a.u.)       :      0.03256
Magnitude (Debye)      :      0.08275

Rotational constants in cm-1:     0.011563     0.005944     0.005329
Rotational constants in MHz :   346.635866   178.190610   159.760657

                             ****ORCA TERMINATED NORMALLY****
TOTAL RUN TIME: 0 days 0 hours 39 minutes 36 seconds 238 msec
