                         Program Version 4.2.0 -  RELEASE  -
|  1> # 12h2o.su.etal.mol0,1,4,5,6,7,8,9
|  2> ! MP2 def2-TZVP EnGrad TightSCF
|  3>
|  4> %pal
|  5>     nprocs 6
|  6> end
|  7>
|  8> %maxcore 8000
|  9>
| 10> %scf
| 11>     ConvForced true
| 12> end
| 13>
| 14> *xyz 0 1
| 15> O   1.794470000   0.923410000   2.768350000
| 16> H   2.338250000   1.359750000   3.430940000
| 17> H   0.879480000   1.303000000   2.865760000
| 18> O  -1.794470000  -0.923410000   2.768350000
| 19> H  -2.338250000  -1.359750000   3.430940000
| 20> H  -0.879480000  -1.303000000   2.865760000
| 21> O  -0.885520000   1.737840000   0.052730000
| 22> H  -1.032320000   2.090180000  -0.841890000
| 23> H  -1.284090000   0.839590000   0.017130000
| 24> O   0.885520000  -1.737840000   0.052730000
| 25> H   1.284090000  -0.839590000   0.017130000
| 26> H   1.032320000  -2.090180000  -0.841890000
| 27> O   1.737840000   0.885520000  -0.052730000
| 28> H   2.090180000   1.032320000   0.841890000
| 29> H   0.839590000   1.284090000  -0.017130000
| 30> O  -1.737840000  -0.885520000  -0.052730000
| 31> H  -2.090180000  -1.032320000   0.841890000
| 32> H  -0.839590000  -1.284090000  -0.017130000
| 33> O   1.752130000   0.741530000  -2.896280000
| 34> H   2.036450000   0.920500000  -1.984040000
| 35> H   0.921210000   1.242140000  -2.984230000
| 36> O   0.741530000  -1.752130000   2.896280000
| 37> H   0.920500000  -2.036450000   1.984040000
| 38> H   1.242140000  -0.921210000   2.984230000
| 39> *
| 40>
| 41>                          ****END OF INPUT****

CARTESIAN COORDINATES (ANGSTROEM)
---------------------------------
  O      1.794470    0.923410    2.768350
  H      2.338250    1.359750    3.430940
  H      0.879480    1.303000    2.865760
  O     -1.794470   -0.923410    2.768350
  H     -2.338250   -1.359750    3.430940
  H     -0.879480   -1.303000    2.865760
  O     -0.885520    1.737840    0.052730
  H     -1.032320    2.090180   -0.841890
  H     -1.284090    0.839590    0.017130
  O      0.885520   -1.737840    0.052730
  H      1.284090   -0.839590    0.017130
  H      1.032320   -2.090180   -0.841890
  O      1.737840    0.885520   -0.052730
  H      2.090180    1.032320    0.841890
  H      0.839590    1.284090   -0.017130
  O     -1.737840   -0.885520   -0.052730
  H     -2.090180   -1.032320    0.841890
  H     -0.839590   -1.284090   -0.017130
  O      1.752130    0.741530   -2.896280
  H      2.036450    0.920500   -1.984040
  H      0.921210    1.242140   -2.984230
  O      0.741530   -1.752130    2.896280
  H      0.920500   -2.036450    1.984040
  H      1.242140   -0.921210    2.984230

 Total Charge           Charge          ....    0
 Multiplicity           Mult            ....    1
 Number of Electrons    NEL             ....   80
 Basis Dimension        Dim             ....  344

ORBITAL ENERGIES
----------------

  NO   OCC          E(Eh)            E(eV)
   0   2.0000     -20.624134      -561.2112
   1   2.0000     -20.577742      -559.9488
   2   2.0000     -20.568988      -559.7106
   3   2.0000     -20.565150      -559.6062
   4   2.0000     -20.560255      -559.4730
   5   2.0000     -20.542063      -558.9780
   6   2.0000     -20.540842      -558.9447
   7   2.0000     -20.532919      -558.7291
   8   2.0000      -1.404892       -38.2291
   9   2.0000      -1.374408       -37.3995
  10   2.0000      -1.360507       -37.0213
  11   2.0000      -1.352136       -36.7935
  12   2.0000      -1.347167       -36.6583
  13   2.0000      -1.327129       -36.1130
  14   2.0000      -1.322358       -35.9832
  15   2.0000      -1.314715       -35.7752
  16   2.0000      -0.770140       -20.9566
  17   2.0000      -0.734569       -19.9886
  18   2.0000      -0.732742       -19.9389
  19   2.0000      -0.718861       -19.5612
  20   2.0000      -0.715093       -19.4587
  21   2.0000      -0.708454       -19.2780
  22   2.0000      -0.695746       -18.9322
  23   2.0000      -0.691546       -18.8179
  24   2.0000      -0.652743       -17.7620
  25   2.0000      -0.624924       -17.0051
  26   2.0000      -0.619015       -16.8443
  27   2.0000      -0.597056       -16.2467
  28   2.0000      -0.587005       -15.9732
  29   2.0000      -0.581845       -15.8328
  30   2.0000      -0.566185       -15.4067
  31   2.0000      -0.551143       -14.9974
  32   2.0000      -0.548103       -14.9146
  33   2.0000      -0.518058       -14.0971
  34   2.0000      -0.517224       -14.0744
  35   2.0000      -0.509438       -13.8625
  36   2.0000      -0.502558       -13.6753
  37   2.0000      -0.490999       -13.3608
  38   2.0000      -0.487190       -13.2571
  39   2.0000      -0.482099       -13.1186
  40   0.0000       0.090250         2.4558
  41   0.0000       0.115533         3.1438
  42   0.0000       0.145986         3.9725
  43   0.0000       0.154248         4.1973
  44   0.0000       0.181458         4.9377

MULLIKEN ATOMIC CHARGES
-----------------------
   0 O :   -0.729187
   1 H :    0.369249
   2 H :    0.387629
   3 O :   -0.746114
   4 H :    0.336901
   5 H :    0.370440
   6 O :   -0.720904
   7 H :    0.341043
   8 H :    0.382426
   9 O :   -0.747073
  10 H :    0.373397
  11 H :    0.368089
  12 O :   -0.752209
  13 H :    0.380698
  14 H :    0.355260
  15 O :   -0.736275
  16 H :    0.379458
  17 H :    0.354897
  18 O :   -0.694463
  19 H :    0.373149
  20 H :    0.317156
  21 O :   -0.715385
  22 H :    0.388074
  23 H :    0.363742
Sum of atomic charges:   -0.0000000

LOEWDIN ATOMIC CHARGES
----------------------
   0 O :   -0.289167
   1 H :    0.170607
   2 H :    0.198292
   3 O :   -0.345644
   4 H :    0.153544
   5 H :    0.142888
   6 O :   -0.312180
   7 H :    0.162412
   8 H :    0.147907
   9 O :   -0.297881
  10 H :    0.145655
  11 H :    0.175116
  12 O :   -0.301285
  13 H :    0.151052
  14 H :    0.140392
  15 O :   -0.318604
  16 H :    0.150546
  17 H :    0.137878
  18 O :   -0.339452
  19 H :    0.150780
  20 H :    0.156448
  21 O :   -0.284561
  22 H :    0.157227
  23 H :    0.148031

  Mayer bond orders larger than 0.100000
B(  0-O ,  1-H ) :   0.8294 B(  0-O ,  2-H ) :   0.8073 B(  3-O ,  4-H ) :   0.8505
B(  3-O ,  5-H ) :   0.7506 B(  5-H , 21-O ) :   0.1109 B(  6-O ,  7-H ) :   0.8466
B(  6-O ,  8-H ) :   0.7450 B(  6-O , 14-H ) :   0.1225 B(  8-H , 15-O ) :   0.1235
B(  9-O , 10-H ) :   0.7536 B(  9-O , 11-H ) :   0.8287 B( 10-H , 12-O ) :   0.1041
B( 12-O , 13-H ) :   0.8059 B( 12-O , 14-H ) :   0.7524 B( 15-O , 16-H ) :   0.7974
B( 15-O , 17-H ) :   0.7890 B( 18-O , 19-H ) :   0.8169 B( 18-O , 20-H ) :   0.8632
B( 21-O , 22-H ) :   0.8022 B( 21-O , 23-H ) :   0.8134

MP2 TOTAL ENERGY:     -610.601158273 Eh
FINAL SINGLE POINT ENERGY      -610.601158272546

DIPOLE MOMENT
-------------
                                X             Y             Z
Electronic contribution:      0.32012      -0.13515       0.20142
Nuclear contribution   :      0.11069       1.02062       1.26519
                        -----------------------------------------
Total Dipole Moment    :      0.43081       0.88547       1.46661
                        -----------------------------------------
Magnitude (a.u.)       :      1.76652
Magnitude (Debye)      :      4.49015

Rotational constants in cm-1:     0.036399     0.021946     0.019350
Rotational constants in MHz :  1091.206090   657.932918   580.105068

                             ****ORCA TERMINATED NORMALLY****
TOTAL RUN TIME: 0 days 0 hours 3 minutes 30 seconds 707 msec
