                         Program Version 4.2.0 -  RELEASE  -
|  1> # 12h2o.su.etal.mol2,3,5,6,7,8,9,10,11
|  2> ! MP2 def2-TZVP EnGrad TightSCF
|  3>
|  4> %pal
|  5>     nprocs 6
|  6> end
|  7>
|  8> %maxcore 8000
|  9>
| 10> %scf
| 11>     ConvForced true
| 12> end
| 13>
| 14> *xyz 0 1
| 15> O   0.923410000  -1.794470000  -2.768350000
| 16> H   1.359750000  -2.338250000  -3.430940000
| 17> H   1.303000000  -0.879480000  -2.865760000
| 18> O  -1.752130000  -0.741530000  -2.896280000
| 19> H  -2.036450000  -0.920500000  -1.984040000
| 20> H  -0.921210000  -1.242140000  -2.984230000
| 21> O   0.885520000  -1.737840000   0.052730000
| 22> H   1.284090000  -0.839590000   0.017130000
| 23> H   1.032320000  -2.090180000  -0.841890000
| 24> O   1.737840000   0.885520000  -0.052730000
| 25> H   2.090180000   1.032320000   0.841890000
| 26> H   0.839590000   1.284090000  -0.017130000
| 27> O  -1.737840000  -0.885520000  -0.052730000
| 28> H  -2.090180000  -1.032320000   0.841890000
| 29> H  -0.839590000  -1.284090000  -0.017130000
| 30> O   1.752130000   0.741530000  -2.896280000
| 31> H   2.036450000   0.920500000  -1.984040000
| 32> H   0.921210000   1.242140000  -2.984230000
| 33> O   0.741530000  -1.752130000   2.896280000
| 34> H   0.920500000  -2.036450000   1.984040000
| 35> H   1.242140000  -0.921210000   2.984230000
| 36> O  -0.923410000   1.794470000  -2.768350000
| 37> H  -1.359750000   2.338250000  -3.430940000
| 38> H  -1.303000000   0.879480000  -2.865760000
| 39> O  -0.741530000   1.752130000   2.896280000
| 40> H  -0.920500000   2.036450000   1.984040000
| 41> H  -1.242140000   0.921210000   2.984230000
| 42> *
| 43>
| 44>                          ****END OF INPUT****

CARTESIAN COORDINATES (ANGSTROEM)
---------------------------------
  O      0.923410   -1.794470   -2.768350
  H      1.359750   -2.338250   -3.430940
  H      1.303000   -0.879480   -2.865760
  O     -1.752130   -0.741530   -2.896280
  H     -2.036450   -0.920500   -1.984040
  H     -0.921210   -1.242140   -2.984230
  O      0.885520   -1.737840    0.052730
  H      1.284090   -0.839590    0.017130
  H      1.032320   -2.090180   -0.841890
  O      1.737840    0.885520   -0.052730
  H      2.090180    1.032320    0.841890
  H      0.839590    1.284090   -0.017130
  O     -1.737840   -0.885520   -0.052730
  H     -2.090180   -1.032320    0.841890
  H     -0.839590   -1.284090   -0.017130
  O      1.752130    0.741530   -2.896280
  H      2.036450    0.920500   -1.984040
  H      0.921210    1.242140   -2.984230
  O      0.741530   -1.752130    2.896280
  H      0.920500   -2.036450    1.984040
  H      1.242140   -0.921210    2.984230
  O     -0.923410    1.794470   -2.768350
  H     -1.359750    2.338250   -3.430940
  H     -1.303000    0.879480   -2.865760
  O     -0.741530    1.752130    2.896280
  H     -0.920500    2.036450    1.984040
  H     -1.242140    0.921210    2.984230

 Total Charge           Charge          ....    0
 Multiplicity           Mult            ....    1
 Number of Electrons    NEL             ....   90
 Basis Dimension        Dim             ....  387

ORBITAL ENERGIES
----------------

  NO   OCC          E(Eh)            E(eV)
   0   2.0000     -20.632450      -561.4375
   1   2.0000     -20.579703      -560.0022
   2   2.0000     -20.573544      -559.8346
   3   2.0000     -20.571385      -559.7758
   4   2.0000     -20.564360      -559.5847
   5   2.0000     -20.560884      -559.4901
   6   2.0000     -20.548293      -559.1475
   7   2.0000     -20.548037      -559.1405
   8   2.0000     -20.547600      -559.1286
   9   2.0000      -1.415927       -38.5293
  10   2.0000      -1.372117       -37.3372
  11   2.0000      -1.363353       -37.0987
  12   2.0000      -1.358564       -36.9684
  13   2.0000      -1.348512       -36.6949
  14   2.0000      -1.347066       -36.6555
  15   2.0000      -1.339162       -36.4405
  16   2.0000      -1.329291       -36.1718
  17   2.0000      -1.323656       -36.0185
  18   2.0000      -0.773482       -21.0475
  19   2.0000      -0.740224       -20.1425
  20   2.0000      -0.735985       -20.0272
  21   2.0000      -0.726486       -19.7687
  22   2.0000      -0.721268       -19.6267
  23   2.0000      -0.717902       -19.5351
  24   2.0000      -0.710219       -19.3260
  25   2.0000      -0.703320       -19.1383
  26   2.0000      -0.698555       -19.0086
  27   2.0000      -0.661283       -17.9944
  28   2.0000      -0.630137       -17.1469
  29   2.0000      -0.617455       -16.8018
  30   2.0000      -0.603456       -16.4209
  31   2.0000      -0.596252       -16.2248
  32   2.0000      -0.588088       -16.0027
  33   2.0000      -0.580994       -15.8096
  34   2.0000      -0.571028       -15.5385
  35   2.0000      -0.558843       -15.2069
  36   2.0000      -0.548707       -14.9311
  37   2.0000      -0.524048       -14.2601
  38   2.0000      -0.520623       -14.1669
  39   2.0000      -0.518738       -14.1156
  40   2.0000      -0.510992       -13.9048
  41   2.0000      -0.509337       -13.8598
  42   2.0000      -0.498502       -13.5649
  43   2.0000      -0.493906       -13.4399
  44   2.0000      -0.492794       -13.4096
  45   0.0000       0.071768         1.9529
  46   0.0000       0.122242         3.3264
  47   0.0000       0.128557         3.4982
  48   0.0000       0.138987         3.7820
  49   0.0000       0.156160         4.2493

MULLIKEN ATOMIC CHARGES
-----------------------
   0 O :   -0.761699
   1 H :    0.353785
   2 H :    0.384741
   3 O :   -0.724818
   4 H :    0.388028
   5 H :    0.365456
   6 O :   -0.749419
   7 H :    0.353752
   8 H :    0.388329
   9 O :   -0.718281
  10 H :    0.372738
  11 H :    0.376958
  12 O :   -0.739193
  13 H :    0.340219
  14 H :    0.365714
  15 O :   -0.721614
  16 H :    0.380619
  17 H :    0.373109
  18 O :   -0.696907
  19 H :    0.375402
  20 H :    0.317820
  21 O :   -0.754323
  22 H :    0.342232
  23 H :    0.385570
  24 O :   -0.679625
  25 H :    0.333545
  26 H :    0.347862
Sum of atomic charges:   -0.0000000

LOEWDIN ATOMIC CHARGES
----------------------
   0 O :   -0.316747
   1 H :    0.160722
   2 H :    0.146279
   3 O :   -0.288022
   4 H :    0.158220
   5 H :    0.147962
   6 O :   -0.299741
   7 H :    0.139584
   8 H :    0.154101
   9 O :   -0.273756
  10 H :    0.177982
  11 H :    0.184741
  12 O :   -0.342392
  13 H :    0.162276
  14 H :    0.143415
  15 O :   -0.284733
  16 H :    0.154046
  17 H :    0.151733
  18 O :   -0.338273
  19 H :    0.151506
  20 H :    0.154532
  21 O :   -0.346539
  22 H :    0.156149
  23 H :    0.145899
  24 O :   -0.328581
  25 H :    0.160939
  26 H :    0.168696

  Mayer bond orders larger than 0.100000
B(  0-O ,  1-H ) :   0.8388 B(  0-O ,  2-H ) :   0.7257 B(  2-H , 15-O ) :   0.1242
B(  3-O ,  4-H ) :   0.7999 B(  3-O ,  5-H ) :   0.8034 B(  3-O , 23-H ) :   0.1197
B(  6-O ,  7-H ) :   0.7822 B(  6-O ,  8-H ) :   0.7898 B(  9-O , 10-H ) :   0.8249
B(  9-O , 11-H ) :   0.8117 B( 12-O , 13-H ) :   0.8469 B( 12-O , 14-H ) :   0.7680
B( 15-O , 16-H ) :   0.8156 B( 15-O , 17-H ) :   0.7835 B( 18-O , 19-H ) :   0.8137
B( 18-O , 20-H ) :   0.8605 B( 21-O , 22-H ) :   0.8478 B( 21-O , 23-H ) :   0.7367
B( 24-O , 25-H ) :   0.8529 B( 24-O , 26-H ) :   0.8419

MP2 TOTAL ENERGY:     -686.919727461 Eh
FINAL SINGLE POINT ENERGY      -686.919727460997

DIPOLE MOMENT
-------------
                                X             Y             Z
Electronic contribution:      0.16935       0.03672      -0.00025
Nuclear contribution   :      0.45394       0.45439      -0.49091
                        -----------------------------------------
Total Dipole Moment    :      0.62330       0.49112      -0.49116
                        -----------------------------------------
Magnitude (a.u.)       :      0.93324
Magnitude (Debye)      :      2.37211

Rotational constants in cm-1:     0.027674     0.015569     0.014601
Rotational constants in MHz :   829.660359   466.736108   437.732286

                             ****ORCA TERMINATED NORMALLY****
TOTAL RUN TIME: 0 days 0 hours 4 minutes 46 seconds 512 msec
