                         Program Version 4.2.0 -  RELEASE  -
|  1> # 12h2o.su.etal.mol0,1,3,7,8,10
|  2> ! MP2 def2-TZVP EnGrad TightSCF
|  3>
|  4> %pal
|  5>     nprocs 6
|  6> end
|  7>
|  8> %maxcore 8000
|  9>
| 10> %scf
| 11>     ConvForced true
| 12> end
| 13>
| 14> *xyz 0 1
| 15> O   1.794470000   0.923410000   2.768350000
| 16> H   2.338250000   1.359750000   3.430940000
| 17> H   0.879480000   1.303000000   2.865760000
| 18> O  -1.794470000  -0.923410000   2.768350000
| 19> H  -2.338250000  -1.359750000   3.430940000
| 20> H  -0.879480000  -1.303000000   2.865760000
| 21> O  -1.752130000  -0.741530000  -2.896280000
| 22> H  -2.036450000  -0.920500000  -1.984040000
| 23> H  -0.921210000  -1.242140000  -2.984230000
| 24> O  -1.737840000  -0.885520000  -0.052730000
| 25> H  -2.090180000  -1.032320000   0.841890000
| 26> H  -0.839590000  -1.284090000  -0.017130000
| 27> O   1.752130000   0.741530000  -2.896280000
| 28> H   2.036450000   0.920500000  -1.984040000
| 29> H   0.921210000   1.242140000  -2.984230000
| 30> O  -0.923410000   1.794470000  -2.768350000
| 31> H  -1.359750000   2.338250000  -3.430940000
| 32> H  -1.303000000   0.879480000  -2.865760000
| 33> *
| 34>
| 35>                          ****END OF INPUT****

CARTESIAN COORDINATES (ANGSTROEM)
---------------------------------
  O      1.794470    0.923410    2.768350
  H      2.338250    1.359750    3.430940
  H      0.879480    1.303000    2.865760
  O     -1.794470   -0.923410    2.768350
  H     -2.338250   -1.359750    3.430940
  H     -0.879480   -1.303000    2.865760
  O     -1.752130   -0.741530   -2.896280
  H     -2.036450   -0.920500   -1.984040
  H     -0.921210   -1.242140   -2.984230
  O     -1.737840   -0.885520   -0.052730
  H     -2.090180   -1.032320    0.841890
  H     -0.839590   -1.284090   -0.017130
  O      1.752130    0.741530   -2.896280
  H      2.036450    0.920500   -1.984040
  H      0.921210    1.242140   -2.984230
  O     -0.923410    1.794470   -2.768350
  H     -1.359750    2.338250   -3.430940
  H     -1.303000    0.879480   -2.865760

 Total Charge           Charge          ....    0
 Multiplicity           Mult            ....    1
 Number of Electrons    NEL             ....   60
 Basis Dimension        Dim             ....  258

ORBITAL ENERGIES
----------------

  NO   OCC          E(Eh)            E(eV)
   0   2.0000     -20.604088      -560.6657
   1   2.0000     -20.572372      -559.8027
   2   2.0000     -20.565211      -559.6078
   3   2.0000     -20.560439      -559.4780
   4   2.0000     -20.524766      -558.5073
   5   2.0000     -20.516403      -558.2797
   6   2.0000      -1.382142       -37.6100
   7   2.0000      -1.353437       -36.8289
   8   2.0000      -1.347669       -36.6719
   9   2.0000      -1.342103       -36.5205
  10   2.0000      -1.310036       -35.6479
  11   2.0000      -1.296691       -35.2848
  12   2.0000      -0.748892       -20.3784
  13   2.0000      -0.720104       -19.5950
  14   2.0000      -0.715869       -19.4798
  15   2.0000      -0.704086       -19.1591
  16   2.0000      -0.692595       -18.8465
  17   2.0000      -0.666159       -18.1271
  18   2.0000      -0.623413       -16.9639
  19   2.0000      -0.603239       -16.4150
  20   2.0000      -0.584311       -15.8999
  21   2.0000      -0.580621       -15.7995
  22   2.0000      -0.557614       -15.1734
  23   2.0000      -0.541902       -14.7459
  24   2.0000      -0.532792       -14.4980
  25   2.0000      -0.515721       -14.0335
  26   2.0000      -0.511973       -13.9315
  27   2.0000      -0.496046       -13.4981
  28   2.0000      -0.474133       -12.9018
  29   2.0000      -0.463987       -12.6257
  30   0.0000       0.086023         2.3408
  31   0.0000       0.128279         3.4906
  32   0.0000       0.129340         3.5195
  33   0.0000       0.165685         4.5085
  34   0.0000       0.181354         4.9349

MULLIKEN ATOMIC CHARGES
-----------------------
   0 O :   -0.692010
   1 H :    0.342665
   2 H :    0.350290
   3 O :   -0.699048
   4 H :    0.354877
   5 H :    0.358816
   6 O :   -0.703562
   7 H :    0.387980
   8 H :    0.349118
   9 O :   -0.708593
  10 H :    0.377739
  11 H :    0.331371
  12 O :   -0.719474
  13 H :    0.328806
  14 H :    0.361880
  15 O :   -0.737030
  16 H :    0.332263
  17 H :    0.383913
Sum of atomic charges:   -0.0000000

LOEWDIN ATOMIC CHARGES
----------------------
   0 O :   -0.342160
   1 H :    0.159882
   2 H :    0.182788
   3 O :   -0.310877
   4 H :    0.165020
   5 H :    0.186480
   6 O :   -0.278298
   7 H :    0.159355
   8 H :    0.169858
   9 O :   -0.324679
  10 H :    0.155116
  11 H :    0.168155
  12 O :   -0.355124
  13 H :    0.159275
  14 H :    0.147173
  15 O :   -0.339738
  16 H :    0.151517
  17 H :    0.146256

  Mayer bond orders larger than 0.100000
B(  0-O ,  1-H ) :   0.8508 B(  0-O ,  2-H ) :   0.8389 B(  3-O ,  4-H ) :   0.8401
B(  3-O ,  5-H ) :   0.8294 B(  6-O ,  7-H ) :   0.7962 B(  6-O ,  8-H ) :   0.8393
B(  9-O , 10-H ) :   0.8060 B(  9-O , 11-H ) :   0.8492 B( 12-O , 13-H ) :   0.8581
B( 12-O , 14-H ) :   0.8025 B( 15-O , 16-H ) :   0.8531 B( 15-O , 17-H ) :   0.7570

MP2 TOTAL ENERGY:     -457.915652800 Eh
FINAL SINGLE POINT ENERGY      -457.915652800112

DIPOLE MOMENT
-------------
                                X             Y             Z
Electronic contribution:     -0.32289      -0.08896       0.01235
Nuclear contribution   :     -0.22475      -0.76293       2.77909
                        -----------------------------------------
Total Dipole Moment    :     -0.54765      -0.85189       2.79143
                        -----------------------------------------
Magnitude (a.u.)       :      2.96947
Magnitude (Debye)      :      7.54778

Rotational constants in cm-1:     0.043357     0.022042     0.016139
Rotational constants in MHz :  1299.820027   660.811699   483.846192

                             ****ORCA TERMINATED NORMALLY****
TOTAL RUN TIME: 0 days 0 hours 0 minutes 51 seconds 873 msec
