                         Program Version 4.2.0 -  RELEASE  -
|  1> # 12h2o.su.etal.mol0,1,2,7,8,9,10
|  2> ! MP2 def2-TZVP EnGrad TightSCF
|  3>
|  4> %pal
|  5>     nprocs 6
|  6> end
|  7>
|  8> %maxcore 8000
|  9>
| 10> %scf
| 11>     ConvForced true
| 12> end
| 13>
| 14> *xyz 0 1
| 15> O   1.794470000   0.923410000   2.768350000
| 16> H   2.338250000   1.359750000   3.430940000
| 17> H   0.879480000   1.303000000   2.865760000
| 18> O  -1.794470000  -0.923410000   2.768350000
| 19> H  -2.338250000  -1.359750000   3.430940000
| 20> H  -0.879480000  -1.303000000   2.865760000
| 21> O   0.923410000  -1.794470000  -2.768350000
| 22> H   1.359750000  -2.338250000  -3.430940000
| 23> H   1.303000000  -0.879480000  -2.865760000
| 24> O  -1.737840000  -0.885520000  -0.052730000
| 25> H  -2.090180000  -1.032320000   0.841890000
| 26> H  -0.839590000  -1.284090000  -0.017130000
| 27> O   1.752130000   0.741530000  -2.896280000
| 28> H   2.036450000   0.920500000  -1.984040000
| 29> H   0.921210000   1.242140000  -2.984230000
| 30> O   0.741530000  -1.752130000   2.896280000
| 31> H   0.920500000  -2.036450000   1.984040000
| 32> H   1.242140000  -0.921210000   2.984230000
| 33> O  -0.923410000   1.794470000  -2.768350000
| 34> H  -1.359750000   2.338250000  -3.430940000
| 35> H  -1.303000000   0.879480000  -2.865760000
| 36> *
| 37>
| 38>                          ****END OF INPUT****

CARTESIAN COORDINATES (ANGSTROEM)
---------------------------------
  O      1.794470    0.923410    2.768350
  H      2.338250    1.359750    3.430940
  H      0.879480    1.303000    2.865760
  O     -1.794470   -0.923410    2.768350
  H     -2.338250   -1.359750    3.430940
  H     -0.879480   -1.303000    2.865760
  O      0.923410   -1.794470   -2.768350
  H      1.359750   -2.338250   -3.430940
  H      1.303000   -0.879480   -2.865760
  O     -1.737840   -0.885520   -0.052730
  H     -2.090180   -1.032320    0.841890
  H     -0.839590   -1.284090   -0.017130
  O      1.752130    0.741530   -2.896280
  H      2.036450    0.920500   -1.984040
  H      0.921210    1.242140   -2.984230
  O      0.741530   -1.752130    2.896280
  H      0.920500   -2.036450    1.984040
  H      1.242140   -0.921210    2.984230
  O     -0.923410    1.794470   -2.768350
  H     -1.359750    2.338250   -3.430940
  H     -1.303000    0.879480   -2.865760

 Total Charge           Charge          ....    0
 Multiplicity           Mult            ....    1
 Number of Electrons    NEL             ....   70
 Basis Dimension        Dim             ....  301

ORBITAL ENERGIES
----------------

  NO   OCC          E(Eh)            E(eV)
   0   2.0000     -20.600655      -560.5723
   1   2.0000     -20.578619      -559.9727
   2   2.0000     -20.578213      -559.9617
   3   2.0000     -20.562511      -559.5344
   4   2.0000     -20.539976      -558.9212
   5   2.0000     -20.517309      -558.3044
   6   2.0000     -20.513071      -558.1890
   7   2.0000      -1.380069       -37.5536
   8   2.0000      -1.366078       -37.1729
   9   2.0000      -1.359183       -36.9852
  10   2.0000      -1.347996       -36.6808
  11   2.0000      -1.324381       -36.0382
  12   2.0000      -1.295696       -35.2577
  13   2.0000      -1.294804       -35.2334
  14   2.0000      -0.746960       -20.3258
  15   2.0000      -0.726987       -19.7823
  16   2.0000      -0.725595       -19.7444
  17   2.0000      -0.709601       -19.3092
  18   2.0000      -0.708208       -19.2713
  19   2.0000      -0.682201       -18.5636
  20   2.0000      -0.664853       -18.0916
  21   2.0000      -0.626799       -17.0561
  22   2.0000      -0.606700       -16.5091
  23   2.0000      -0.602003       -16.3813
  24   2.0000      -0.580831       -15.8052
  25   2.0000      -0.570014       -15.5109
  26   2.0000      -0.542934       -14.7740
  27   2.0000      -0.542845       -14.7716
  28   2.0000      -0.539194       -14.6722
  29   2.0000      -0.519239       -14.1292
  30   2.0000      -0.513817       -13.9817
  31   2.0000      -0.495275       -13.4771
  32   2.0000      -0.486664       -13.2428
  33   2.0000      -0.463854       -12.6221
  34   2.0000      -0.463017       -12.5993
  35   0.0000       0.096005         2.6124
  36   0.0000       0.120085         3.2677
  37   0.0000       0.136476         3.7137
  38   0.0000       0.156407         4.2560
  39   0.0000       0.167830         4.5669

MULLIKEN ATOMIC CHARGES
-----------------------
   0 O :   -0.704575
   1 H :    0.357174
   2 H :    0.372320
   3 O :   -0.739218
   4 H :    0.334965
   5 H :    0.365858
   6 O :   -0.735594
   7 H :    0.322945
   8 H :    0.363926
   9 O :   -0.701231
  10 H :    0.366100
  11 H :    0.316498
  12 O :   -0.702143
  13 H :    0.351528
  14 H :    0.374547
  15 O :   -0.699425
  16 H :    0.353339
  17 H :    0.377307
  18 O :   -0.703542
  19 H :    0.348883
  20 H :    0.380336
Sum of atomic charges:    0.0000000

LOEWDIN ATOMIC CHARGES
----------------------
   0 O :   -0.311373
   1 H :    0.166045
   2 H :    0.193052
   3 O :   -0.343313
   4 H :    0.152522
   5 H :    0.141759
   6 O :   -0.375166
   7 H :    0.147691
   8 H :    0.140937
   9 O :   -0.350579
  10 H :    0.148351
  11 H :    0.158678
  12 O :   -0.284775
  13 H :    0.170381
  14 H :    0.153957
  15 O :   -0.279913
  16 H :    0.169774
  17 H :    0.154771
  18 O :   -0.310720
  19 H :    0.162371
  20 H :    0.195551

  Mayer bond orders larger than 0.100000
B(  0-O ,  1-H ) :   0.8389 B(  0-O ,  2-H ) :   0.8214 B(  3-O ,  4-H ) :   0.8515
B(  3-O ,  5-H ) :   0.7610 B(  6-O ,  7-H ) :   0.8613 B(  6-O ,  8-H ) :   0.7756
B(  9-O , 10-H ) :   0.8134 B(  9-O , 11-H ) :   0.8587 B( 12-O , 13-H ) :   0.8418
B( 12-O , 14-H ) :   0.7937 B( 15-O , 16-H ) :   0.8396 B( 15-O , 17-H ) :   0.7945
B( 18-O , 19-H ) :   0.8434 B( 18-O , 20-H ) :   0.8144

MP2 TOTAL ENERGY:     -534.240650665 Eh
FINAL SINGLE POINT ENERGY      -534.240650664544

DIPOLE MOMENT
-------------
                                X             Y             Z
Electronic contribution:      0.13813       0.43393       0.09860
Nuclear contribution   :      0.56508       0.56668       0.77428
                        -----------------------------------------
Total Dipole Moment    :      0.70321       1.00061       0.87288
                        -----------------------------------------
Magnitude (a.u.)       :      1.50254
Magnitude (Debye)      :      3.81916

Rotational constants in cm-1:     0.036651     0.015526     0.014476
Rotational constants in MHz :  1098.784300   465.454179   433.981344

                             ****ORCA TERMINATED NORMALLY****
TOTAL RUN TIME: 0 days 0 hours 1 minutes 28 seconds 480 msec
