                         Program Version 3.0.3 - RELEASE   -
|  1> ! B3LYP Def2-TZVP def2-TZVP/J RIJCOSX TightSCF Grid4 D3BJ
|  2>
|  3> %pal nprocs 12 end
|  4>
|  5> %scf
|  6>         maxiter 400
|  7> end
|  8>
|  9> * xyz  0  1
| 10> O  1.314026	-0.915529	2.955476
| 11> H  2.103081	-0.672157	2.422893
| 12> H  0.779996	-1.452800	2.331339
| 13> O  -1.600409	0.511141	0.937034
| 14> H  -1.324290	0.915658	1.789952
| 15> H  -1.084764	-0.341513	0.931126
| 16> O  1.823769	2.402542	1.291382
| 17> H  1.295162	2.426309	0.466435
| 18> H  1.158317	2.206048	1.988346
| 19> O  0.126766	1.690942	-0.749382
| 20> H  -0.348556	1.722536	-1.609357
| 21> H  -0.561097	1.331306	-0.125162
| 22> O  -0.080233	-1.677927	0.767342
| 23> H  0.579984	-1.325623	0.109090
| 24> H  -0.675867	-2.218770	0.200600
| 25> O  3.134234	0.143205	1.149588
| 26> H  2.716108	1.063541	1.212301
| 27> H  4.085269	0.269040	1.267365
| 28> O  1.584213	-0.546450	-0.970531
| 29> H  1.112464	0.330205	-0.941115
| 30> H  2.362267	-0.412882	-0.382339
| 31> O  -0.048063	-1.392998	-3.016402
| 32> H  0.746791	-1.196881	-2.476470
| 33> H  -0.464071	-0.516382	-3.174555
| 34> O  -3.171341	-0.110019	-1.242442
| 35> H  -2.880566	0.226910	-0.368067
| 36> H  -2.828862	-1.031526	-1.242696
| 37> O  -1.429596	0.984808	-2.869471
| 38> H  -2.162032	0.603661	-2.282964
| 39> H  -1.877576	1.494787	-3.557520
| 40> O  -1.655058	-2.432240	-1.270179
| 41> H  -1.961964	-3.294187	-1.582035
| 42> H  -1.029459	-2.088175	-1.991967
| 43> O  -0.034283	1.301563	3.022157
| 44> H  0.484831	0.431260	3.072891
| 45> H  -0.189189	1.570596	3.937338
| 46> **                         ****END OF INPUT****

CARTESIAN COORDINATES (ANGSTROEM)
---------------------------------
  O      1.314026   -0.915529    2.955476
  H      2.103081   -0.672157    2.422893
  H      0.779996   -1.452800    2.331339
  O     -1.600409    0.511141    0.937034
  H     -1.324290    0.915658    1.789952
  H     -1.084764   -0.341513    0.931126
  O      1.823769    2.402542    1.291382
  H      1.295162    2.426309    0.466435
  H      1.158317    2.206048    1.988346
  O      0.126766    1.690942   -0.749382
  H     -0.348556    1.722536   -1.609357
  H     -0.561097    1.331306   -0.125162
  O     -0.080233   -1.677927    0.767342
  H      0.579984   -1.325623    0.109090
  H     -0.675867   -2.218770    0.200600
  O      3.134234    0.143205    1.149588
  H      2.716108    1.063541    1.212301
  H      4.085269    0.269040    1.267365
  O      1.584213   -0.546450   -0.970531
  H      1.112464    0.330205   -0.941115
  H      2.362267   -0.412882   -0.382339
  O     -0.048063   -1.392998   -3.016402
  H      0.746791   -1.196881   -2.476470
  H     -0.464071   -0.516382   -3.174555
  O     -3.171341   -0.110019   -1.242442
  H     -2.880566    0.226910   -0.368067
  H     -2.828862   -1.031526   -1.242696
  O     -1.429596    0.984808   -2.869471
  H     -2.162032    0.603661   -2.282964
  H     -1.877576    1.494787   -3.557520
  O     -1.655058   -2.432240   -1.270179
  H     -1.961964   -3.294187   -1.582035
  H     -1.029459   -2.088175   -1.991967
  O     -0.034283    1.301563    3.022157
  H      0.484831    0.431260    3.072891
  H     -0.189189    1.570596    3.937338

 Total Charge           Charge          ....    0
 Multiplicity           Mult            ....    1
 Number of Electrons    NEL             ....  120
 Basis Dimension        Dim             ....  516

ORBITAL ENERGIES
----------------

  NO   OCC          E(Eh)            E(eV)
   0   2.0000     -19.142851      -520.9035
   1   2.0000     -19.142144      -520.8842
   2   2.0000     -19.140440      -520.8379
   3   2.0000     -19.138095      -520.7741
   4   2.0000     -19.127792      -520.4937
   5   2.0000     -19.127324      -520.4809
   6   2.0000     -19.124995      -520.4176
   7   2.0000     -19.124497      -520.4040
   8   2.0000     -19.123767      -520.3842
   9   2.0000     -19.121073      -520.3109
  10   2.0000     -19.121053      -520.3103
  11   2.0000     -19.119586      -520.2704
  12   2.0000      -1.041056       -28.3286
  13   2.0000      -1.032801       -28.1039
  14   2.0000      -1.026847       -27.9419
  15   2.0000      -1.025092       -27.8942
  16   2.0000      -1.021280       -27.7904
  17   2.0000      -1.012092       -27.5404
  18   2.0000      -1.012041       -27.5390
  19   2.0000      -1.002538       -27.2804
  20   2.0000      -1.000583       -27.2272
  21   2.0000      -0.999362       -27.1940
  22   2.0000      -0.995303       -27.0836
  23   2.0000      -0.984144       -26.7799
  24   2.0000      -0.554044       -15.0763
  25   2.0000      -0.551286       -15.0013
  26   2.0000      -0.548960       -14.9380
  27   2.0000      -0.547876       -14.9085
  28   2.0000      -0.540080       -14.6963
  29   2.0000      -0.537226       -14.6187
  30   2.0000      -0.534433       -14.5427
  31   2.0000      -0.532125       -14.4799
  32   2.0000      -0.527357       -14.3501
  33   2.0000      -0.522777       -14.2255
  34   2.0000      -0.518945       -14.1212
  35   2.0000      -0.516499       -14.0546
  36   2.0000      -0.466235       -12.6869
  37   2.0000      -0.446218       -12.1422
  38   2.0000      -0.435047       -11.8382
  39   2.0000      -0.432428       -11.7670
  40   2.0000      -0.414120       -11.2688
  41   2.0000      -0.413479       -11.2513
  42   2.0000      -0.411875       -11.2077
  43   2.0000      -0.410761       -11.1774
  44   2.0000      -0.386712       -10.5230
  45   2.0000      -0.385612       -10.4930
  46   2.0000      -0.378320       -10.2946
  47   2.0000      -0.355003        -9.6601
  48   2.0000      -0.336582        -9.1589
  49   2.0000      -0.335530        -9.1302
  50   2.0000      -0.333836        -9.0842
  51   2.0000      -0.332508        -9.0480
  52   2.0000      -0.328408        -8.9364
  53   2.0000      -0.325196        -8.8490
  54   2.0000      -0.324760        -8.8372
  55   2.0000      -0.317973        -8.6525
  56   2.0000      -0.317213        -8.6318
  57   2.0000      -0.315752        -8.5920
  58   2.0000      -0.314948        -8.5702
  59   2.0000      -0.313711        -8.5365
  60   0.0000       0.000415         0.0113
  61   0.0000       0.018463         0.5024
  62   0.0000       0.031123         0.8469
  63   0.0000       0.031602         0.8599
  64   0.0000       0.073184         1.9914

MULLIKEN ATOMIC CHARGES
-----------------------
   0 O :   -0.678277
   1 H :    0.351254
   2 H :    0.374492
   3 O :   -0.730442
   4 H :    0.364478
   5 H :    0.352131
   6 O :   -0.684504
   7 H :    0.372832
   8 H :    0.351646
   9 O :   -0.733028
  10 H :    0.362722
  11 H :    0.348401
  12 O :   -0.734834
  13 H :    0.350641
  14 H :    0.364172
  15 O :   -0.724596
  16 H :    0.368311
  17 H :    0.332066
  18 O :   -0.730183
  19 H :    0.351052
  20 H :    0.364488
  21 O :   -0.679332
  22 H :    0.374657
  23 H :    0.356255
  24 O :   -0.676895
  25 H :    0.372616
  26 H :    0.349580
  27 O :   -0.725382
  28 H :    0.364785
  29 H :    0.332769
  30 O :   -0.727121
  31 H :    0.332070
  32 H :    0.364739
  33 O :   -0.728236
  34 H :    0.365646
  35 H :    0.331024
Sum of atomic charges:   -0.0000000

LOEWDIN ATOMIC CHARGES
----------------------
   0 O :   -0.268816
   1 H :    0.141298
   2 H :    0.147058
   3 O :   -0.292858
   4 H :    0.144651
   5 H :    0.131153
   6 O :   -0.274163
   7 H :    0.148239
   8 H :    0.140953
   9 O :   -0.290829
  10 H :    0.143007
  11 H :    0.132853
  12 O :   -0.287706
  13 H :    0.129841
  14 H :    0.141107
  15 O :   -0.298653
  16 H :    0.140208
  17 H :    0.157571
  18 O :   -0.288604
  19 H :    0.131600
  20 H :    0.143243
  21 O :   -0.264799
  22 H :    0.149757
  23 H :    0.141788
  24 O :   -0.274104
  25 H :    0.149949
  26 H :    0.140891
  27 O :   -0.298877
  28 H :    0.140622
  29 H :    0.157951
  30 O :   -0.297476
  31 H :    0.156935
  32 H :    0.135900
  33 O :   -0.302655
  34 H :    0.136471
  35 H :    0.156493

  Mayer bond orders larger than 0.1
B(  0-O ,  1-H ) :   0.8337 B(  0-O ,  2-H ) :   0.8280 B(  0-O , 34-H ) :   0.1909
B(  3-O ,  4-H ) :   0.8244 B(  3-O ,  5-H ) :   0.7723 B(  3-O , 11-H ) :   0.1533
B(  5-H , 12-O ) :   0.1514 B(  6-O ,  7-H ) :   0.8331 B(  6-O ,  8-H ) :   0.8282
B(  6-O , 16-H ) :   0.1759 B(  9-O , 10-H ) :   0.8216 B(  9-O , 11-H ) :   0.7717
B(  9-O , 19-H ) :   0.1430 B( 12-O , 13-H ) :   0.7675 B( 12-O , 14-H ) :   0.8174
B( 13-H , 18-O ) :   0.1567 B( 15-O , 16-H ) :   0.7346 B( 15-O , 17-H ) :   0.8906
B( 18-O , 19-H ) :   0.7763 B( 18-O , 20-H ) :   0.8184 B( 21-O , 22-H ) :   0.8315
B( 21-O , 23-H ) :   0.8279 B( 21-O , 32-H ) :   0.1929 B( 24-O , 25-H ) :   0.8352
B( 24-O , 26-H ) :   0.8336 B( 24-O , 28-H ) :   0.1859 B( 27-O , 28-H ) :   0.7318
B( 27-O , 29-H ) :   0.8902 B( 30-O , 31-H ) :   0.8911 B( 30-O , 32-H ) :   0.7246
B( 33-O , 34-H ) :   0.7259 B( 33-O , 35-H ) :   0.8917

Dispersion correction           -0.043073665
FINAL SINGLE POINT ENERGY      -917.343936712775

DIPOLE MOMENT
-------------
                                X             Y             Z
Electronic contribution:     -0.01094      -0.04095      -0.04892
Nuclear contribution   :      0.08983       0.10228      -0.01142
                        -----------------------------------------
Total Dipole Moment    :      0.07889       0.06134      -0.06033
                        -----------------------------------------
Magnitude (a.u.)       :      0.11673
Magnitude (Debye)      :      0.29670

                             ****ORCA TERMINATED NORMALLY****
TOTAL RUN TIME: 0 days 0 hours 1 minutes 24 seconds 759 msec
