                         Program Version 3.0.3 - RELEASE   -
|  1> ! wB97X-D3 MA-Def2-TZVP def2-TZVP/J RIJCOSX TightSCF Grid4
|  2>
|  3> %pal nprocs 1 end
|  4>
|  5> %scf
|  6>         maxiter 400
|  7> end
|  8>
|  9> * xyz  0  1
| 10> O  1.314026	-0.915529	2.955476
| 11> H  2.103081	-0.672157	2.422893
| 12> H  0.779996	-1.452800	2.331339
| 13> O  -1.600409	0.511141	0.937034
| 14> H  -1.324290	0.915658	1.789952
| 15> H  -1.084764	-0.341513	0.931126
| 16> O  1.823769	2.402542	1.291382
| 17> H  1.295162	2.426309	0.466435
| 18> H  1.158317	2.206048	1.988346
| 19> O  0.126766	1.690942	-0.749382
| 20> H  -0.348556	1.722536	-1.609357
| 21> H  -0.561097	1.331306	-0.125162
| 22> O  -0.080233	-1.677927	0.767342
| 23> H  0.579984	-1.325623	0.109090
| 24> H  -0.675867	-2.218770	0.200600
| 25> O  3.134234	0.143205	1.149588
| 26> H  2.716108	1.063541	1.212301
| 27> H  4.085269	0.269040	1.267365
| 28> O  1.584213	-0.546450	-0.970531
| 29> H  1.112464	0.330205	-0.941115
| 30> H  2.362267	-0.412882	-0.382339
| 31> O  -0.048063	-1.392998	-3.016402
| 32> H  0.746791	-1.196881	-2.476470
| 33> H  -0.464071	-0.516382	-3.174555
| 34> O  -3.171341	-0.110019	-1.242442
| 35> H  -2.880566	0.226910	-0.368067
| 36> H  -2.828862	-1.031526	-1.242696
| 37> O  -1.429596	0.984808	-2.869471
| 38> H  -2.162032	0.603661	-2.282964
| 39> H  -1.877576	1.494787	-3.557520
| 40> O  -1.655058	-2.432240	-1.270179
| 41> H  -1.961964	-3.294187	-1.582035
| 42> H  -1.029459	-2.088175	-1.991967
| 43> O  -0.034283	1.301563	3.022157
| 44> H  0.484831	0.431260	3.072891
| 45> H  -0.189189	1.570596	3.937338
| 46> **                         ****END OF INPUT****

CARTESIAN COORDINATES (ANGSTROEM)
---------------------------------
  O      1.314026   -0.915529    2.955476
  H      2.103081   -0.672157    2.422893
  H      0.779996   -1.452800    2.331339
  O     -1.600409    0.511141    0.937034
  H     -1.324290    0.915658    1.789952
  H     -1.084764   -0.341513    0.931126
  O      1.823769    2.402542    1.291382
  H      1.295162    2.426309    0.466435
  H      1.158317    2.206048    1.988346
  O      0.126766    1.690942   -0.749382
  H     -0.348556    1.722536   -1.609357
  H     -0.561097    1.331306   -0.125162
  O     -0.080233   -1.677927    0.767342
  H      0.579984   -1.325623    0.109090
  H     -0.675867   -2.218770    0.200600
  O      3.134234    0.143205    1.149588
  H      2.716108    1.063541    1.212301
  H      4.085269    0.269040    1.267365
  O      1.584213   -0.546450   -0.970531
  H      1.112464    0.330205   -0.941115
  H      2.362267   -0.412882   -0.382339
  O     -0.048063   -1.392998   -3.016402
  H      0.746791   -1.196881   -2.476470
  H     -0.464071   -0.516382   -3.174555
  O     -3.171341   -0.110019   -1.242442
  H     -2.880566    0.226910   -0.368067
  H     -2.828862   -1.031526   -1.242696
  O     -1.429596    0.984808   -2.869471
  H     -2.162032    0.603661   -2.282964
  H     -1.877576    1.494787   -3.557520
  O     -1.655058   -2.432240   -1.270179
  H     -1.961964   -3.294187   -1.582035
  H     -1.029459   -2.088175   -1.991967
  O     -0.034283    1.301563    3.022157
  H      0.484831    0.431260    3.072891
  H     -0.189189    1.570596    3.937338

 Total Charge           Charge          ....    0
 Multiplicity           Mult            ....    1
 Number of Electrons    NEL             ....  120
 Basis Dimension        Dim             ....  564

ORBITAL ENERGIES
----------------

  NO   OCC          E(Eh)            E(eV)
   0   2.0000     -19.253514      -523.9147
   1   2.0000     -19.252767      -523.8944
   2   2.0000     -19.251005      -523.8465
   3   2.0000     -19.248747      -523.7850
   4   2.0000     -19.238939      -523.5181
   5   2.0000     -19.238141      -523.4964
   6   2.0000     -19.235846      -523.4340
   7   2.0000     -19.235450      -523.4232
   8   2.0000     -19.234393      -523.3944
   9   2.0000     -19.232045      -523.3306
  10   2.0000     -19.231647      -523.3197
  11   2.0000     -19.230294      -523.2829
  12   2.0000      -1.159877       -31.5619
  13   2.0000      -1.151028       -31.3211
  14   2.0000      -1.144859       -31.1532
  15   2.0000      -1.143117       -31.1058
  16   2.0000      -1.139264       -31.0009
  17   2.0000      -1.130082       -30.7511
  18   2.0000      -1.129919       -30.7467
  19   2.0000      -1.120281       -30.4844
  20   2.0000      -1.118096       -30.4249
  21   2.0000      -1.117019       -30.3956
  22   2.0000      -1.112698       -30.2780
  23   2.0000      -1.101362       -29.9696
  24   2.0000      -0.659924       -17.9574
  25   2.0000      -0.656836       -17.8734
  26   2.0000      -0.654406       -17.8073
  27   2.0000      -0.653446       -17.7812
  28   2.0000      -0.646802       -17.6004
  29   2.0000      -0.643661       -17.5149
  30   2.0000      -0.640599       -17.4316
  31   2.0000      -0.638275       -17.3683
  32   2.0000      -0.633842       -17.2477
  33   2.0000      -0.628382       -17.0991
  34   2.0000      -0.624100       -16.9826
  35   2.0000      -0.621542       -16.9130
  36   2.0000      -0.574102       -15.6221
  37   2.0000      -0.552088       -15.0231
  38   2.0000      -0.540622       -14.7111
  39   2.0000      -0.537829       -14.6351
  40   2.0000      -0.517800       -14.0900
  41   2.0000      -0.516879       -14.0650
  42   2.0000      -0.516070       -14.0430
  43   2.0000      -0.515358       -14.0236
  44   2.0000      -0.489111       -13.3094
  45   2.0000      -0.488057       -13.2807
  46   2.0000      -0.481222       -13.0947
  47   2.0000      -0.455540       -12.3959
  48   2.0000      -0.437526       -11.9057
  49   2.0000      -0.436391       -11.8748
  50   2.0000      -0.434628       -11.8268
  51   2.0000      -0.433717       -11.8020
  52   2.0000      -0.429497       -11.6872
  53   2.0000      -0.426181       -11.5970
  54   2.0000      -0.425800       -11.5866
  55   2.0000      -0.418715       -11.3938
  56   2.0000      -0.417914       -11.3720
  57   2.0000      -0.416805       -11.3419
  58   2.0000      -0.415602       -11.3091
  59   2.0000      -0.414410       -11.2767
  60   0.0000       0.053023         1.4428
  61   0.0000       0.067589         1.8392
  62   0.0000       0.076789         2.0895
  63   0.0000       0.077645         2.1128
  64   0.0000       0.108074         2.9408

MULLIKEN ATOMIC CHARGES
-----------------------
   0 O :   -0.751679
   1 H :    0.404197
   2 H :    0.417591
   3 O :   -0.792314
   4 H :    0.412009
   5 H :    0.398579
   6 O :   -0.762477
   7 H :    0.414080
   8 H :    0.404287
   9 O :   -0.856089
  10 H :    0.413965
  11 H :    0.397281
  12 O :   -0.883081
  13 H :    0.408228
  14 H :    0.415493
  15 O :   -0.815811
  16 H :    0.418458
  17 H :    0.357905
  18 O :   -0.807761
  19 H :    0.402603
  20 H :    0.415220
  21 O :   -0.750641
  22 H :    0.419470
  23 H :    0.410242
  24 O :   -0.740549
  25 H :    0.416474
  26 H :    0.397803
  27 O :   -0.825859
  28 H :    0.412269
  29 H :    0.359444
  30 O :   -0.819604
  31 H :    0.357086
  32 H :    0.408273
  33 O :   -0.827845
  34 H :    0.415618
  35 H :    0.357134
Sum of atomic charges:    0.0000000

LOEWDIN ATOMIC CHARGES
----------------------
   0 O :   -0.356502
   1 H :    0.193435
   2 H :    0.196857
   3 O :   -0.401150
   4 H :    0.197855
   5 H :    0.187266
   6 O :   -0.361540
   7 H :    0.197813
   8 H :    0.193099
   9 O :   -0.400775
  10 H :    0.196277
  11 H :    0.189091
  12 O :   -0.398835
  13 H :    0.185906
  14 H :    0.194452
  15 O :   -0.396777
  16 H :    0.191230
  17 H :    0.190882
  18 O :   -0.397304
  19 H :    0.187819
  20 H :    0.196541
  21 O :   -0.352240
  22 H :    0.199241
  23 H :    0.193657
  24 O :   -0.360819
  25 H :    0.199381
  26 H :    0.192697
  27 O :   -0.397630
  28 H :    0.191423
  29 H :    0.191354
  30 O :   -0.396499
  31 H :    0.190840
  32 H :    0.186668
  33 O :   -0.401267
  34 H :    0.187309
  35 H :    0.190245

  Mayer bond orders larger than 0.1
B(  0-O ,  1-H ) :   0.8533 B(  0-O ,  2-H ) :   0.8389 B(  0-O , 34-H ) :   0.1185
B(  3-O ,  4-H ) :   0.8299 B(  3-O ,  5-H ) :   0.8020 B(  6-O ,  7-H ) :   0.8430
B(  6-O ,  8-H ) :   0.8486 B(  6-O , 16-H ) :   0.1002 B(  9-O , 10-H ) :   0.8299
B(  9-O , 11-H ) :   0.8059 B( 12-O , 13-H ) :   0.8021 B( 12-O , 14-H ) :   0.8294
B( 15-O , 16-H ) :   0.7592 B( 15-O , 17-H ) :   0.8762 B( 18-O , 19-H ) :   0.8103
B( 18-O , 20-H ) :   0.8274 B( 21-O , 22-H ) :   0.8417 B( 21-O , 23-H ) :   0.8493
B( 21-O , 32-H ) :   0.1300 B( 24-O , 25-H ) :   0.8448 B( 24-O , 26-H ) :   0.8539
B( 24-O , 28-H ) :   0.1137 B( 27-O , 28-H ) :   0.7538 B( 27-O , 29-H ) :   0.8741
B( 30-O , 31-H ) :   0.8768 B( 30-O , 32-H ) :   0.7488 B( 33-O , 34-H ) :   0.7496
B( 33-O , 35-H ) :   0.8765

Dispersion correction           -0.022134012
FINAL SINGLE POINT ENERGY      -917.487594561400

DIPOLE MOMENT
-------------
                                X             Y             Z
Electronic contribution:     -0.00784      -0.04021      -0.05071
Nuclear contribution   :      0.08983       0.10228      -0.01142
                        -----------------------------------------
Total Dipole Moment    :      0.08200       0.06207      -0.06213
                        -----------------------------------------
Magnitude (a.u.)       :      0.12015
Magnitude (Debye)      :      0.30540

                             ****ORCA TERMINATED NORMALLY****
TOTAL RUN TIME: 0 days 0 hours 15 minutes 1 seconds 8 msec
