                         Program Version 4.2.0 -  RELEASE  -
|  1> # 12meoh.boyd.etal.mol3,6,11
|  2> ! MP2 def2-TZVP EnGrad TightSCF
|  3>
|  4> %pal
|  5>     nprocs 6
|  6> end
|  7>
|  8> %maxcore 8000
|  9>
| 10> %scf
| 11>     ConvForced true
| 12> end
| 13>
| 14> *xyz 0 1
| 15> O  -3.821405976  -2.118091637   0.596795346
| 16> H  -4.342989117  -1.344303030   0.251966383
| 17> C  -3.443883586  -1.809641231   1.934889393
| 18> H  -2.831494349  -2.637429600   2.305201764
| 19> H  -4.325601146  -1.719364371   2.585074667
| 20> H  -2.858527126  -0.882644791   1.996110694
| 21> O   2.622209273  -1.703002590  -1.445859723
| 22> H   1.828551432  -1.986513781  -0.909754968
| 23> C   2.781117675  -2.615822239  -2.525472890
| 24> H   3.691063626  -2.339003544  -3.065143454
| 25> H   1.934727323  -2.559520367  -3.223226661
| 26> H   2.879948338  -3.653846211  -2.177750170
| 27> O   3.252955559   0.588596242   1.858934315
| 28> H   3.621209177  -0.251605199   1.476063364
| 29> C   4.040824528   0.944288422   2.989639460
| 30> H   3.670521436   1.902573549   3.363847391
| 31> H   5.103749934   1.055868619   2.734277559
| 32> H   3.948540682   0.200279590   3.792908518
| 33> *
| 34>
| 35>                          ****END OF INPUT****

CARTESIAN COORDINATES (ANGSTROEM)
---------------------------------
  O     -3.821406   -2.118092    0.596795
  H     -4.342989   -1.344303    0.251966
  C     -3.443884   -1.809641    1.934889
  H     -2.831494   -2.637430    2.305202
  H     -4.325601   -1.719364    2.585075
  H     -2.858527   -0.882645    1.996111
  O      2.622209   -1.703003   -1.445860
  H      1.828551   -1.986514   -0.909755
  C      2.781118   -2.615822   -2.525473
  H      3.691064   -2.339004   -3.065143
  H      1.934727   -2.559520   -3.223227
  H      2.879948   -3.653846   -2.177750
  O      3.252956    0.588596    1.858934
  H      3.621209   -0.251605    1.476063
  C      4.040825    0.944288    2.989639
  H      3.670521    1.902574    3.363847
  H      5.103750    1.055869    2.734278
  H      3.948541    0.200280    3.792909

 Total Charge           Charge          ....    0
 Multiplicity           Mult            ....    1
 Number of Electrons    NEL             ....   54
 Basis Dimension        Dim             ....  258

ORBITAL ENERGIES
----------------

  NO   OCC          E(Eh)            E(eV)
   0   2.0000     -20.558286      -559.4194
   1   2.0000     -20.557892      -559.4087
   2   2.0000     -20.549706      -559.1859
   3   2.0000     -11.271782      -306.7208
   4   2.0000     -11.271055      -306.7010
   5   2.0000     -11.266475      -306.5764
   6   2.0000      -1.347366       -36.6637
   7   2.0000      -1.345852       -36.6225
   8   2.0000      -1.339234       -36.4424
   9   2.0000      -0.919399       -25.0181
  10   2.0000      -0.918863       -25.0035
  11   2.0000      -0.914074       -24.8732
  12   2.0000      -0.681641       -18.5484
  13   2.0000      -0.680611       -18.5204
  14   2.0000      -0.674831       -18.3631
  15   2.0000      -0.617783       -16.8107
  16   2.0000      -0.616601       -16.7786
  17   2.0000      -0.611194       -16.6314
  18   2.0000      -0.591089       -16.0844
  19   2.0000      -0.590613       -16.0714
  20   2.0000      -0.584380       -15.9018
  21   2.0000      -0.501205       -13.6385
  22   2.0000      -0.499583       -13.5943
  23   2.0000      -0.493897       -13.4396
  24   2.0000      -0.449916       -12.2428
  25   2.0000      -0.448784       -12.2120
  26   2.0000      -0.442486       -12.0406
  27   0.0000       0.127331         3.4648
  28   0.0000       0.135678         3.6920
  29   0.0000       0.150829         4.1043
  30   0.0000       0.171020         4.6537
  31   0.0000       0.176376         4.7994

MULLIKEN ATOMIC CHARGES
-----------------------
   0 O :   -0.497191
   1 H :    0.322051
   2 C :   -0.176428
   3 H :    0.126988
   4 H :    0.109740
   5 H :    0.114840
   6 O :   -0.500647
   7 H :    0.326562
   8 C :   -0.173159
   9 H :    0.128827
  10 H :    0.112475
  11 H :    0.108948
  12 O :   -0.499125
  13 H :    0.327082
  14 C :   -0.173564
  15 H :    0.126556
  16 H :    0.110147
  17 H :    0.105898
Sum of atomic charges:   -0.0000000

LOEWDIN ATOMIC CHARGES
----------------------
   0 O :   -0.110915
   1 H :    0.191040
   2 C :   -0.382122
   3 H :    0.109751
   4 H :    0.095675
   5 H :    0.096571
   6 O :   -0.112396
   7 H :    0.194403
   8 C :   -0.381722
   9 H :    0.110062
  10 H :    0.096587
  11 H :    0.095295
  12 O :   -0.108793
  13 H :    0.191468
  14 C :   -0.383390
  15 H :    0.109139
  16 H :    0.095423
  17 H :    0.093923

  Mayer bond orders larger than 0.100000
B(  0-O ,  1-H ) :   0.8425 B(  0-O ,  2-C ) :   0.9251 B(  2-C ,  3-H ) :   0.9378
B(  2-C ,  4-H ) :   0.9392 B(  2-C ,  5-H ) :   0.9383 B(  6-O ,  7-H ) :   0.8375
B(  6-O ,  8-C ) :   0.9232 B(  8-C ,  9-H ) :   0.9378 B(  8-C , 10-H ) :   0.9384
B(  8-C , 11-H ) :   0.9388 B( 12-O , 13-H ) :   0.8359 B( 12-O , 14-C ) :   0.9331
B( 14-C , 15-H ) :   0.9379 B( 14-C , 16-H ) :   0.9393 B( 14-C , 17-H ) :   0.9389

MP2 TOTAL ENERGY:     -346.521563017 Eh
FINAL SINGLE POINT ENERGY      -346.521563017097

DIPOLE MOMENT
-------------
                                X             Y             Z
Electronic contribution:     -1.55100       0.37910      -1.81347
Nuclear contribution   :      1.49417      -0.70249       2.21025
                        -----------------------------------------
Total Dipole Moment    :     -0.05684      -0.32339       0.39678
                        -----------------------------------------
Magnitude (a.u.)       :      0.51502
Magnitude (Debye)      :      1.30907

Rotational constants in cm-1:     0.034108     0.015491     0.010794
Rotational constants in MHz :  1022.520037   464.399790   323.610038

                             ****ORCA TERMINATED NORMALLY****
TOTAL RUN TIME: 0 days 0 hours 0 minutes 59 seconds 543 msec
