                         Program Version 4.2.0 -  RELEASE  -
|  1> # 12mecn.remya.etal.2.mol1,3,5
|  2> ! MP2 def2-TZVP EnGrad TightSCF
|  3>
|  4> %pal
|  5>     nprocs 6
|  6> end
|  7>
|  8> %maxcore 8000
|  9>
| 10> %scf
| 11>     ConvForced true
| 12> end
| 13>
| 14> *xyz 0 1
| 15> C  -4.697980000  -0.249690000   1.746215000
| 16> H  -4.927570000   0.755530000   2.111799000
| 17> H  -3.709180000  -0.561560000   2.093253000
| 18> H  -5.432280000  -0.961520000   2.128066000
| 19> C  -4.714100000  -0.247110000   0.301670000
| 20> N  -4.729750000  -0.234960000  -0.865260000
| 21> C  -5.181310000   2.853865000  -1.626100000
| 22> H  -5.488260000   3.811434000  -2.053310000
| 23> H  -5.857590000   2.068112000  -1.968630000
| 24> H  -4.170750000   2.611402000  -1.966640000
| 25> C  -5.187260000   2.919160000  -0.181450000
| 26> N  -5.181700000   2.970641000   0.983640000
| 27> C  -1.955700000   2.515080000   1.698463000
| 28> H  -2.923830000   2.883163000   2.049269000
| 29> H  -1.154850000   3.171830000   2.050990000
| 30> H  -1.790380000   1.506115000   2.087896000
| 31> C  -1.948230000   2.482156000   0.253672000
| 32> N  -1.937550000   2.462523000  -0.913150000
| 33> *
| 34>
| 35>                          ****END OF INPUT****

CARTESIAN COORDINATES (ANGSTROEM)
---------------------------------
  C     -4.697980   -0.249690    1.746215
  H     -4.927570    0.755530    2.111799
  H     -3.709180   -0.561560    2.093253
  H     -5.432280   -0.961520    2.128066
  C     -4.714100   -0.247110    0.301670
  N     -4.729750   -0.234960   -0.865260
  C     -5.181310    2.853865   -1.626100
  H     -5.488260    3.811434   -2.053310
  H     -5.857590    2.068112   -1.968630
  H     -4.170750    2.611402   -1.966640
  C     -5.187260    2.919160   -0.181450
  N     -5.181700    2.970641    0.983640
  C     -1.955700    2.515080    1.698463
  H     -2.923830    2.883163    2.049269
  H     -1.154850    3.171830    2.050990
  H     -1.790380    1.506115    2.087896
  C     -1.948230    2.482156    0.253672
  N     -1.937550    2.462523   -0.913150

 Total Charge           Charge          ....    0
 Multiplicity           Mult            ....    1
 Number of Electrons    NEL             ....   66
 Basis Dimension        Dim             ....  333

ORBITAL ENERGIES
----------------

  NO   OCC          E(Eh)            E(eV)
   0   2.0000     -15.570977      -423.7078
   1   2.0000     -15.570895      -423.7056
   2   2.0000     -15.568799      -423.6486
   3   2.0000     -11.285449      -307.0927
   4   2.0000     -11.281150      -306.9757
   5   2.0000     -11.280750      -306.9648
   6   2.0000     -11.277320      -306.8715
   7   2.0000     -11.277291      -306.8707
   8   2.0000     -11.259946      -306.3987
   9   2.0000      -1.219754       -33.1912
  10   2.0000      -1.214132       -33.0382
  11   2.0000      -1.212848       -33.0033
  12   2.0000      -1.040948       -28.3256
  13   2.0000      -1.038103       -28.2482
  14   2.0000      -1.026018       -27.9194
  15   2.0000      -0.698347       -19.0030
  16   2.0000      -0.694798       -18.9064
  17   2.0000      -0.686281       -18.6747
  18   2.0000      -0.637605       -17.3501
  19   2.0000      -0.631379       -17.1807
  20   2.0000      -0.628048       -17.0900
  21   2.0000      -0.620739       -16.8912
  22   2.0000      -0.611720       -16.6457
  23   2.0000      -0.607742       -16.5375
  24   2.0000      -0.560105       -15.2412
  25   2.0000      -0.555197       -15.1077
  26   2.0000      -0.554840       -15.0980
  27   2.0000      -0.465298       -12.6614
  28   2.0000      -0.460357       -12.5269
  29   2.0000      -0.458316       -12.4714
  30   2.0000      -0.455886       -12.4053
  31   2.0000      -0.453291       -12.3347
  32   2.0000      -0.450799       -12.2669
  33   0.0000       0.112605         3.0641
  34   0.0000       0.150437         4.0936
  35   0.0000       0.154197         4.1959
  36   0.0000       0.158525         4.3137
  37   0.0000       0.166719         4.5367

MULLIKEN ATOMIC CHARGES
-----------------------
   0 C :   -0.294070
   1 H :    0.201148
   2 H :    0.158963
   3 H :    0.177250
   4 C :   -0.121657
   5 N :   -0.121231
   6 C :   -0.272142
   7 H :    0.166188
   8 H :    0.178941
   9 H :    0.206962
  10 C :   -0.082793
  11 N :   -0.198310
  12 C :   -0.290414
  13 H :    0.202835
  14 H :    0.177177
  15 H :    0.156433
  16 C :   -0.111493
  17 N :   -0.133786
Sum of atomic charges:   -0.0000000

LOEWDIN ATOMIC CHARGES
----------------------
   0 C :   -0.286555
   1 H :    0.154945
   2 H :    0.148715
   3 H :    0.151729
   4 C :   -0.213501
   5 N :    0.047777
   6 C :   -0.283042
   7 H :    0.148610
   8 H :    0.154962
   9 H :    0.160418
  10 C :   -0.199627
  11 N :    0.015462
  12 C :   -0.286400
  13 H :    0.155388
  14 H :    0.152384
  15 H :    0.148395
  16 C :   -0.211845
  17 N :    0.042185

  Mayer bond orders larger than 0.100000
B(  0-C ,  1-H ) :   0.9055 B(  0-C ,  2-H ) :   0.9221 B(  0-C ,  3-H ) :   0.9101
B(  0-C ,  4-C ) :   0.8966 B(  4-C ,  5-N ) :   2.7848 B(  6-C ,  7-H ) :   0.9085
B(  6-C ,  8-H ) :   0.9100 B(  6-C ,  9-H ) :   0.9000 B(  6-C , 10-C ) :   0.9108
B( 10-C , 11-N ) :   2.7128 B( 12-C , 13-H ) :   0.9066 B( 12-C , 14-H ) :   0.9106
B( 12-C , 15-H ) :   0.9193 B( 12-C , 16-C ) :   0.8980 B( 16-C , 17-N ) :   2.7666

MP2 TOTAL ENERGY:     -397.466903984 Eh
FINAL SINGLE POINT ENERGY      -397.466903984106

DIPOLE MOMENT
-------------
                                X             Y             Z
Electronic contribution:     -0.06634       0.12605      -3.25980
Nuclear contribution   :      0.06914      -0.16802       4.62788
                        -----------------------------------------
Total Dipole Moment    :      0.00280      -0.04197       1.36808
                        -----------------------------------------
Magnitude (a.u.)       :      1.36872
Magnitude (Debye)      :      3.47902

Rotational constants in cm-1:     0.046600     0.038030     0.030699
Rotational constants in MHz :  1397.017883  1140.105251   920.327957

                             ****ORCA TERMINATED NORMALLY****
TOTAL RUN TIME: 0 days 0 hours 5 minutes 11 seconds 791 msec
