                         Program Version 4.2.0 -  RELEASE  -
|  1> # 12meoh.boyd.etal.mol5,8
|  2> ! MP2 def2-TZVP EnGrad TightSCF
|  3>
|  4> %pal
|  5>     nprocs 6
|  6> end
|  7>
|  8> %maxcore 8000
|  9>
| 10> %scf
| 11>     ConvForced true
| 12> end
| 13>
| 14> *xyz 0 1
| 15> O  -0.662721750   1.449094618  -1.383082065
| 16> H   0.064188300   2.119867608  -1.465650660
| 17> C  -0.353319239   0.341218776  -2.229326771
| 18> H  -1.072358530  -0.454743281  -2.019906495
| 19> H   0.657636746  -0.044472139  -2.042736771
| 20> H  -0.434616607   0.624733901  -3.287793021
| 21> O   3.570084754   2.361662577  -0.202416728
| 22> H   3.393280933   1.755669977   0.560634073
| 23> C   4.368082883   1.644741793  -1.143112807
| 24> H   4.552851717   2.311801738  -1.989632421
| 25> H   3.862427494   0.740851663  -1.508095690
| 26> H   5.333949674   1.357289092  -0.706288100
| 27> *
| 28>
| 29>                          ****END OF INPUT****

CARTESIAN COORDINATES (ANGSTROEM)
---------------------------------
  O     -0.662722    1.449095   -1.383082
  H      0.064188    2.119868   -1.465651
  C     -0.353319    0.341219   -2.229327
  H     -1.072359   -0.454743   -2.019906
  H      0.657637   -0.044472   -2.042737
  H     -0.434617    0.624734   -3.287793
  O      3.570085    2.361663   -0.202417
  H      3.393281    1.755670    0.560634
  C      4.368083    1.644742   -1.143113
  H      4.552852    2.311802   -1.989632
  H      3.862427    0.740852   -1.508096
  H      5.333950    1.357289   -0.706288

 Total Charge           Charge          ....    0
 Multiplicity           Mult            ....    1
 Number of Electrons    NEL             ....   36
 Basis Dimension        Dim             ....  172

ORBITAL ENERGIES
----------------

  NO   OCC          E(Eh)            E(eV)
   0   2.0000     -20.563974      -559.5742
   1   2.0000     -20.552686      -559.2670
   2   2.0000     -11.278151      -306.8941
   3   2.0000     -11.270416      -306.6836
   4   2.0000      -1.353350       -36.8265
   5   2.0000      -1.341182       -36.4954
   6   2.0000      -0.926311       -25.2062
   7   2.0000      -0.918031       -24.9809
   8   2.0000      -0.688378       -18.7317
   9   2.0000      -0.677375       -18.4323
  10   2.0000      -0.623780       -16.9739
  11   2.0000      -0.614358       -16.7175
  12   2.0000      -0.596142       -16.2218
  13   2.0000      -0.587646       -15.9907
  14   2.0000      -0.508150       -13.8275
  15   2.0000      -0.497731       -13.5439
  16   2.0000      -0.456416       -12.4197
  17   2.0000      -0.446179       -12.1412
  18   0.0000       0.113249         3.0817
  19   0.0000       0.158358         4.3091
  20   0.0000       0.163776         4.4566
  21   0.0000       0.183200         4.9851
  22   0.0000       0.206791         5.6271

MULLIKEN ATOMIC CHARGES
-----------------------
   0 O :   -0.502827
   1 H :    0.327872
   2 C :   -0.169616
   3 H :    0.128965
   4 H :    0.103511
   5 H :    0.110350
   6 O :   -0.499726
   7 H :    0.325004
   8 C :   -0.178477
   9 H :    0.131012
  10 H :    0.108092
  11 H :    0.115841
Sum of atomic charges:    0.0000000

LOEWDIN ATOMIC CHARGES
----------------------
   0 O :   -0.112803
   1 H :    0.190684
   2 C :   -0.377845
   3 H :    0.109313
   4 H :    0.093462
   5 H :    0.095843
   6 O :   -0.110592
   7 H :    0.189489
   8 C :   -0.379588
   9 H :    0.110680
  10 H :    0.094069
  11 H :    0.097288

  Mayer bond orders larger than 0.100000
B(  0-O ,  1-H ) :   0.8376 B(  0-O ,  2-C ) :   0.9293 B(  2-C ,  3-H ) :   0.9379
B(  2-C ,  4-H ) :   0.9390 B(  2-C ,  5-H ) :   0.9401 B(  6-O ,  7-H ) :   0.8412
B(  6-O ,  8-C ) :   0.9223 B(  8-C ,  9-H ) :   0.9379 B(  8-C , 10-H ) :   0.9364
B(  8-C , 11-H ) :   0.9404

MP2 TOTAL ENERGY:     -231.015246451 Eh
FINAL SINGLE POINT ENERGY      -231.015246450946

DIPOLE MOMENT
-------------
                                X             Y             Z
Electronic contribution:     -1.48324       2.33704       2.20177
Nuclear contribution   :      2.31133      -3.02284      -2.49061
                        -----------------------------------------
Total Dipole Moment    :      0.82808      -0.68580      -0.28885
                        -----------------------------------------
Magnitude (a.u.)       :      1.11332
Magnitude (Debye)      :      2.82983

Rotational constants in cm-1:     0.414935     0.045911     0.042412
Rotational constants in MHz : 12439.443248  1376.391688  1271.474098

                             ****ORCA TERMINATED NORMALLY****
TOTAL RUN TIME: 0 days 0 hours 0 minutes 34 seconds 550 msec
