                         Program Version 4.2.0 -  RELEASE  -
|  1> ! MP2 def2-TZVP EnGrad TightSCF FrozenCore
|  2>
|  3> %pal
|  4>     nprocs 12
|  5> end
|  6>
|  7> %maxcore 8000
|  8>
|  9> %scf
| 10>     ConvForced true
| 11> end
| 12>
| 13> *xyz 0 1
| 14> C    -0.822655     3.352297    -0.332895
| 15> H    -0.497799     2.936048    -1.290662
| 16> H     0.005837     3.253254     0.376005
| 17> H    -1.072295     4.409255    -0.455192
| 18> C    -1.985502     2.611515     0.148605
| 19> N    -2.895918     2.003843     0.539182
| 20> C     3.479468     0.875956    -1.094121
| 21> H     2.713449     0.332193    -1.655540
| 22> H     4.151851     0.149650    -0.631918
| 23> H     4.038704     1.527892    -1.770077
| 24> C     2.828599     1.670564    -0.056665
| 25> N     2.297772     2.306106     0.758699
| 26> C    -3.519002    -0.884572    -0.989139
| 27> H    -2.781725    -0.344075    -1.590695
| 28> H    -4.096596    -0.152938    -0.419231
| 29> H    -4.181101    -1.457286    -1.643533
| 30> C    -2.818307    -1.782999    -0.076166
| 31> N    -2.247395    -2.495800     0.642676
| 32> C    -0.076373    -0.079105     1.553963
| 33> H    -0.933251     0.494123     1.921227
| 34> H     0.853641     0.339172     1.948987
| 35> H    -0.186367    -1.118061     1.877811
| 36> C    -0.048842    -0.023282     0.095190
| 37> N    -0.027732     0.022415    -1.067337
| 38> C     0.974346    -3.293754    -0.414138
| 39> H     1.337001    -4.313341    -0.566953
| 40> H     0.683779    -2.858414    -1.374515
| 41> H     0.088125    -3.315496     0.228562
| 42> C     2.017719    -2.472005     0.194304
| 43> N     2.830421    -1.797945     0.679935
| 44> *
| 45>
| 46>                          ****END OF INPUT****

CARTESIAN COORDINATES (ANGSTROEM)
---------------------------------
  C     -0.822655    3.352297   -0.332895
  H     -0.497799    2.936048   -1.290662
  H      0.005837    3.253254    0.376005
  H     -1.072295    4.409255   -0.455192
  C     -1.985502    2.611515    0.148605
  N     -2.895918    2.003843    0.539182
  C      3.479468    0.875956   -1.094121
  H      2.713449    0.332193   -1.655540
  H      4.151851    0.149650   -0.631918
  H      4.038704    1.527892   -1.770077
  C      2.828599    1.670564   -0.056665
  N      2.297772    2.306106    0.758699
  C     -3.519002   -0.884572   -0.989139
  H     -2.781725   -0.344075   -1.590695
  H     -4.096596   -0.152938   -0.419231
  H     -4.181101   -1.457286   -1.643533
  C     -2.818307   -1.782999   -0.076166
  N     -2.247395   -2.495800    0.642676
  C     -0.076373   -0.079105    1.553963
  H     -0.933251    0.494123    1.921227
  H      0.853641    0.339172    1.948987
  H     -0.186367   -1.118061    1.877811
  C     -0.048842   -0.023282    0.095190
  N     -0.027732    0.022415   -1.067337
  C      0.974346   -3.293754   -0.414138
  H      1.337001   -4.313341   -0.566953
  H      0.683779   -2.858414   -1.374515
  H      0.088125   -3.315496    0.228562
  C      2.017719   -2.472005    0.194304
  N      2.830421   -1.797945    0.679935

 Total Charge           Charge          ....    0
 Multiplicity           Mult            ....    1
 Number of Electrons    NEL             ....  110
 Basis Dimension        Dim             ....  555

ORBITAL ENERGIES
----------------

  NO   OCC          E(Eh)            E(eV)
   0   2.0000     -15.572247      -423.7424
   1   2.0000     -15.571935      -423.7339
   2   2.0000     -15.570461      -423.6938
   3   2.0000     -15.569368      -423.6640
   4   2.0000     -15.568539      -423.6415
   5   2.0000     -11.285702      -307.0996
   6   2.0000     -11.284346      -307.0627
   7   2.0000     -11.284145      -307.0572
   8   2.0000     -11.284103      -307.0560
   9   2.0000     -11.282530      -307.0132
  10   2.0000     -11.272054      -306.7282
  11   2.0000     -11.270710      -306.6916
  12   2.0000     -11.269674      -306.6634
  13   2.0000     -11.268978      -306.6445
  14   2.0000     -11.261635      -306.4447
  15   2.0000      -1.223961       -33.3057
  16   2.0000      -1.220440       -33.2099
  17   2.0000      -1.219381       -33.1810
  18   2.0000      -1.218126       -33.1469
  19   2.0000      -1.216192       -33.0943
  20   2.0000      -1.031219       -28.0609
  21   2.0000      -1.030137       -28.0314
  22   2.0000      -1.028468       -27.9860
  23   2.0000      -1.027945       -27.9718
  24   2.0000      -1.023462       -27.8498
  25   2.0000      -0.693007       -18.8577
  26   2.0000      -0.691341       -18.8123
  27   2.0000      -0.688163       -18.7259
  28   2.0000      -0.686623       -18.6840
  29   2.0000      -0.682726       -18.5779
  30   2.0000      -0.632467       -17.2103
  31   2.0000      -0.628690       -17.1075
  32   2.0000      -0.623202       -16.9582
  33   2.0000      -0.621062       -16.8999
  34   2.0000      -0.616524       -16.7765
  35   2.0000      -0.615859       -16.7584
  36   2.0000      -0.615473       -16.7479
  37   2.0000      -0.613720       -16.7002
  38   2.0000      -0.606042       -16.4912
  39   2.0000      -0.601212       -16.3598
  40   2.0000      -0.561921       -15.2906
  41   2.0000      -0.560218       -15.2443
  42   2.0000      -0.559285       -15.2189
  43   2.0000      -0.557729       -15.1766
  44   2.0000      -0.555804       -15.1242
  45   2.0000      -0.471539       -12.8312
  46   2.0000      -0.469449       -12.7743
  47   2.0000      -0.467851       -12.7309
  48   2.0000      -0.464718       -12.6456
  49   2.0000      -0.461187       -12.5495
  50   2.0000      -0.460771       -12.5382
  51   2.0000      -0.459650       -12.5077
  52   2.0000      -0.455083       -12.3834
  53   2.0000      -0.452076       -12.3016
  54   2.0000      -0.450518       -12.2592
  55   0.0000       0.122118         3.3230
  56   0.0000       0.138635         3.7725
  57   0.0000       0.144260         3.9255
  58   0.0000       0.152270         4.1435
  59   0.0000       0.161664         4.3991

MULLIKEN ATOMIC CHARGES
-----------------------
   0 C :   -0.292210
   1 H :    0.176415
   2 H :    0.198545
   3 H :    0.173220
   4 C :   -0.111177
   5 N :   -0.147150
   6 C :   -0.291884
   7 H :    0.182578
   8 H :    0.191645
   9 H :    0.170983
  10 C :   -0.077267
  11 N :   -0.170293
  12 C :   -0.290401
  13 H :    0.182184
  14 H :    0.195605
  15 H :    0.171098
  16 C :   -0.085587
  17 N :   -0.165543
  18 C :   -0.277996
  19 H :    0.190355
  20 H :    0.201847
  21 H :    0.182546
  22 C :   -0.117472
  23 N :   -0.188340
  24 C :   -0.286039
  25 H :    0.174036
  26 H :    0.176055
  27 H :    0.194997
  28 C :   -0.123068
  29 N :   -0.137677
Sum of atomic charges:    0.0000000

LOEWDIN ATOMIC CHARGES
----------------------
   0 C :   -0.283033
   1 H :    0.154438
   2 H :    0.157371
   3 H :    0.148828
   4 C :   -0.208733
   5 N :    0.030684
   6 C :   -0.283961
   7 H :    0.153773
   8 H :    0.155231
   9 H :    0.147045
  10 C :   -0.199882
  11 N :    0.026011
  12 C :   -0.282659
  13 H :    0.154552
  14 H :    0.155955
  15 H :    0.147655
  16 C :   -0.198763
  17 N :    0.025540
  18 C :   -0.280271
  19 H :    0.155341
  20 H :    0.156462
  21 H :    0.153545
  22 C :   -0.211510
  23 N :    0.022252
  24 C :   -0.283339
  25 H :    0.148870
  26 H :    0.154478
  27 H :    0.156127
  28 C :   -0.210024
  29 N :    0.038019

  Mayer bond orders larger than 0.100000
B(  0-C ,  1-H ) :   0.9153 B(  0-C ,  2-H ) :   0.9048 B(  0-C ,  3-H ) :   0.9112
B(  0-C ,  4-C ) :   0.8931 B(  4-C ,  5-N ) :   2.7577 B(  6-C ,  7-H ) :   0.9132
B(  6-C ,  8-H ) :   0.9099 B(  6-C ,  9-H ) :   0.9101 B(  6-C , 10-C ) :   0.9004
B( 10-C , 11-N ) :   2.7307 B( 12-C , 13-H ) :   0.9134 B( 12-C , 14-H ) :   0.9064
B( 12-C , 15-H ) :   0.9099 B( 12-C , 16-C ) :   0.9003 B( 16-C , 17-N ) :   2.7388
B( 18-C , 19-H ) :   0.9070 B( 18-C , 20-H ) :   0.9028 B( 18-C , 21-H ) :   0.9057
B( 18-C , 22-C ) :   0.8913 B( 22-C , 23-N ) :   2.6939 B( 24-C , 25-H ) :   0.9119
B( 24-C , 26-H ) :   0.9171 B( 24-C , 27-H ) :   0.9028 B( 24-C , 28-C ) :   0.8921
B( 28-C , 29-N ) :   2.7608

MP2 TOTAL ENERGY:     -662.458529415 Eh
FINAL SINGLE POINT ENERGY      -662.458529415247

DIPOLE MOMENT
-------------
                                X             Y             Z
Electronic contribution:     -0.06728       0.08634       3.49295
Nuclear contribution   :      0.12379      -0.11856      -5.06907
                        -----------------------------------------
Total Dipole Moment    :      0.05651      -0.03222      -1.57612
                        -----------------------------------------
Magnitude (a.u.)       :      1.57746
Magnitude (Debye)      :      4.00959

Rotational constants in cm-1:     0.017122     0.014146     0.008768
Rotational constants in MHz :   513.309082   424.073943   262.872672

                             ****ORCA TERMINATED NORMALLY****
TOTAL RUN TIME: 0 days 0 hours 19 minutes 38 seconds 974 msec
