                         Program Version 4.2.0 -  RELEASE  -
|  1> # 12h2o.su.etal.mol0,1,2,3,6,7,8,10,11
|  2> ! MP2 def2-TZVP EnGrad TightSCF
|  3>
|  4> %pal
|  5>     nprocs 6
|  6> end
|  7>
|  8> %maxcore 8000
|  9>
| 10> %scf
| 11>     ConvForced true
| 12> end
| 13>
| 14> *xyz 0 1
| 15> O   1.794470000   0.923410000   2.768350000
| 16> H   2.338250000   1.359750000   3.430940000
| 17> H   0.879480000   1.303000000   2.865760000
| 18> O  -1.794470000  -0.923410000   2.768350000
| 19> H  -2.338250000  -1.359750000   3.430940000
| 20> H  -0.879480000  -1.303000000   2.865760000
| 21> O   0.923410000  -1.794470000  -2.768350000
| 22> H   1.359750000  -2.338250000  -3.430940000
| 23> H   1.303000000  -0.879480000  -2.865760000
| 24> O  -1.752130000  -0.741530000  -2.896280000
| 25> H  -2.036450000  -0.920500000  -1.984040000
| 26> H  -0.921210000  -1.242140000  -2.984230000
| 27> O   1.737840000   0.885520000  -0.052730000
| 28> H   2.090180000   1.032320000   0.841890000
| 29> H   0.839590000   1.284090000  -0.017130000
| 30> O  -1.737840000  -0.885520000  -0.052730000
| 31> H  -2.090180000  -1.032320000   0.841890000
| 32> H  -0.839590000  -1.284090000  -0.017130000
| 33> O   1.752130000   0.741530000  -2.896280000
| 34> H   2.036450000   0.920500000  -1.984040000
| 35> H   0.921210000   1.242140000  -2.984230000
| 36> O  -0.923410000   1.794470000  -2.768350000
| 37> H  -1.359750000   2.338250000  -3.430940000
| 38> H  -1.303000000   0.879480000  -2.865760000
| 39> O  -0.741530000   1.752130000   2.896280000
| 40> H  -0.920500000   2.036450000   1.984040000
| 41> H  -1.242140000   0.921210000   2.984230000
| 42> *
| 43>
| 44>                          ****END OF INPUT****

CARTESIAN COORDINATES (ANGSTROEM)
---------------------------------
  O      1.794470    0.923410    2.768350
  H      2.338250    1.359750    3.430940
  H      0.879480    1.303000    2.865760
  O     -1.794470   -0.923410    2.768350
  H     -2.338250   -1.359750    3.430940
  H     -0.879480   -1.303000    2.865760
  O      0.923410   -1.794470   -2.768350
  H      1.359750   -2.338250   -3.430940
  H      1.303000   -0.879480   -2.865760
  O     -1.752130   -0.741530   -2.896280
  H     -2.036450   -0.920500   -1.984040
  H     -0.921210   -1.242140   -2.984230
  O      1.737840    0.885520   -0.052730
  H      2.090180    1.032320    0.841890
  H      0.839590    1.284090   -0.017130
  O     -1.737840   -0.885520   -0.052730
  H     -2.090180   -1.032320    0.841890
  H     -0.839590   -1.284090   -0.017130
  O      1.752130    0.741530   -2.896280
  H      2.036450    0.920500   -1.984040
  H      0.921210    1.242140   -2.984230
  O     -0.923410    1.794470   -2.768350
  H     -1.359750    2.338250   -3.430940
  H     -1.303000    0.879480   -2.865760
  O     -0.741530    1.752130    2.896280
  H     -0.920500    2.036450    1.984040
  H     -1.242140    0.921210    2.984230

 Total Charge           Charge          ....    0
 Multiplicity           Mult            ....    1
 Number of Electrons    NEL             ....   90
 Basis Dimension        Dim             ....  387

ORBITAL ENERGIES
----------------

  NO   OCC          E(Eh)            E(eV)
   0   2.0000     -20.634086      -561.4820
   1   2.0000     -20.592109      -560.3398
   2   2.0000     -20.566723      -559.6490
   3   2.0000     -20.555297      -559.3381
   4   2.0000     -20.549167      -559.1713
   5   2.0000     -20.529732      -558.6424
   6   2.0000     -20.528631      -558.6125
   7   2.0000     -20.525965      -558.5399
   8   2.0000     -20.525206      -558.5193
   9   2.0000      -1.414626       -38.4939
  10   2.0000      -1.381182       -37.5839
  11   2.0000      -1.348856       -36.7042
  12   2.0000      -1.341537       -36.5051
  13   2.0000      -1.332078       -36.2477
  14   2.0000      -1.327611       -36.1261
  15   2.0000      -1.318565       -35.8800
  16   2.0000      -1.310096       -35.6495
  17   2.0000      -1.299146       -35.3516
  18   2.0000      -0.780259       -21.2319
  19   2.0000      -0.742831       -20.2135
  20   2.0000      -0.723517       -19.6879
  21   2.0000      -0.719668       -19.5832
  22   2.0000      -0.700693       -19.0668
  23   2.0000      -0.694676       -18.9031
  24   2.0000      -0.693799       -18.8792
  25   2.0000      -0.683341       -18.5947
  26   2.0000      -0.677157       -18.4264
  27   2.0000      -0.654910       -17.8210
  28   2.0000      -0.625542       -17.0219
  29   2.0000      -0.606261       -16.4972
  30   2.0000      -0.591493       -16.0954
  31   2.0000      -0.589346       -16.0369
  32   2.0000      -0.569797       -15.5050
  33   2.0000      -0.565089       -15.3768
  34   2.0000      -0.561516       -15.2796
  35   2.0000      -0.547054       -14.8861
  36   2.0000      -0.528652       -14.3854
  37   2.0000      -0.526547       -14.3281
  38   2.0000      -0.512832       -13.9549
  39   2.0000      -0.503660       -13.7053
  40   2.0000      -0.495255       -13.4766
  41   2.0000      -0.478703       -13.0262
  42   2.0000      -0.476810       -12.9747
  43   2.0000      -0.474109       -12.9012
  44   2.0000      -0.470712       -12.8087
  45   0.0000       0.077491         2.1086
  46   0.0000       0.119241         3.2447
  47   0.0000       0.147498         4.0136
  48   0.0000       0.149701         4.0736
  49   0.0000       0.164590         4.4787

MULLIKEN ATOMIC CHARGES
-----------------------
   0 O :   -0.743293
   1 H :    0.340723
   2 H :    0.368074
   3 O :   -0.724278
   4 H :    0.371671
   5 H :    0.379253
   6 O :   -0.747544
   7 H :    0.334098
   8 H :    0.385083
   9 O :   -0.727509
  10 H :    0.380657
  11 H :    0.365672
  12 O :   -0.717617
  13 H :    0.377147
  14 H :    0.330854
  15 O :   -0.720248
  16 H :    0.368674
  17 H :    0.352137
  18 O :   -0.729521
  19 H :    0.384066
  20 H :    0.364217
  21 O :   -0.748169
  22 H :    0.334628
  23 H :    0.383540
  24 O :   -0.698344
  25 H :    0.358617
  26 H :    0.377412
Sum of atomic charges:   -0.0000000

LOEWDIN ATOMIC CHARGES
----------------------
   0 O :   -0.343798
   1 H :    0.155474
   2 H :    0.141854
   3 O :   -0.287840
   4 H :    0.171715
   5 H :    0.195389
   6 O :   -0.344967
   7 H :    0.152262
   8 H :    0.146177
   9 O :   -0.291854
  10 H :    0.154821
  11 H :    0.148960
  12 O :   -0.326930
  13 H :    0.153505
  14 H :    0.163697
  15 O :   -0.325471
  16 H :    0.149896
  17 H :    0.174328
  18 O :   -0.292543
  19 H :    0.155873
  20 H :    0.148215
  21 O :   -0.345605
  22 H :    0.152404
  23 H :    0.145729
  24 O :   -0.277188
  25 H :    0.171797
  26 H :    0.154100

  Mayer bond orders larger than 0.100000
B(  0-O ,  1-H ) :   0.8485 B(  0-O ,  2-H ) :   0.7596 B(  3-O ,  4-H ) :   0.8276
B(  3-O ,  5-H ) :   0.8134 B(  6-O ,  7-H ) :   0.8522 B(  6-O ,  8-H ) :   0.7376
B(  8-H , 18-O ) :   0.1197 B(  9-O , 10-H ) :   0.8080 B(  9-O , 11-H ) :   0.7915
B(  9-O , 23-H ) :   0.1191 B( 12-O , 13-H ) :   0.7993 B( 12-O , 14-H ) :   0.8440
B( 15-O , 16-H ) :   0.8165 B( 15-O , 17-H ) :   0.8320 B( 18-O , 19-H ) :   0.8028
B( 18-O , 20-H ) :   0.7949 B( 21-O , 22-H ) :   0.8519 B( 21-O , 23-H ) :   0.7392
B( 24-O , 25-H ) :   0.8359 B( 24-O , 26-H ) :   0.8016

MP2 TOTAL ENERGY:     -686.916642141 Eh
FINAL SINGLE POINT ENERGY      -686.916642140722

DIPOLE MOMENT
-------------
                                X             Y             Z
Electronic contribution:     -0.27577      -0.03986       0.41027
Nuclear contribution   :     -0.56566      -0.45497       2.23466
                        -----------------------------------------
Total Dipole Moment    :     -0.84142      -0.49482       2.64494
                        -----------------------------------------
Magnitude (a.u.)       :      2.81932
Magnitude (Debye)      :      7.16613

Rotational constants in cm-1:     0.027543     0.013955     0.011802
Rotational constants in MHz :   825.705526   418.372853   353.820694

                             ****ORCA TERMINATED NORMALLY****
TOTAL RUN TIME: 0 days 0 hours 4 minutes 13 seconds 328 msec
