                         Program Version 4.2.0 -  RELEASE  -
|  1> # 12h2o.su.etal.mol1,3,4,7,8,11
|  2> ! MP2 def2-TZVP EnGrad TightSCF
|  3>
|  4> %pal
|  5>     nprocs 6
|  6> end
|  7>
|  8> %maxcore 8000
|  9>
| 10> %scf
| 11>     ConvForced true
| 12> end
| 13>
| 14> *xyz 0 1
| 15> O  -1.794470000  -0.923410000   2.768350000
| 16> H  -2.338250000  -1.359750000   3.430940000
| 17> H  -0.879480000  -1.303000000   2.865760000
| 18> O  -1.752130000  -0.741530000  -2.896280000
| 19> H  -2.036450000  -0.920500000  -1.984040000
| 20> H  -0.921210000  -1.242140000  -2.984230000
| 21> O  -0.885520000   1.737840000   0.052730000
| 22> H  -1.032320000   2.090180000  -0.841890000
| 23> H  -1.284090000   0.839590000   0.017130000
| 24> O  -1.737840000  -0.885520000  -0.052730000
| 25> H  -2.090180000  -1.032320000   0.841890000
| 26> H  -0.839590000  -1.284090000  -0.017130000
| 27> O   1.752130000   0.741530000  -2.896280000
| 28> H   2.036450000   0.920500000  -1.984040000
| 29> H   0.921210000   1.242140000  -2.984230000
| 30> O  -0.741530000   1.752130000   2.896280000
| 31> H  -0.920500000   2.036450000   1.984040000
| 32> H  -1.242140000   0.921210000   2.984230000
| 33> *
| 34>
| 35>                          ****END OF INPUT****

CARTESIAN COORDINATES (ANGSTROEM)
---------------------------------
  O     -1.794470   -0.923410    2.768350
  H     -2.338250   -1.359750    3.430940
  H     -0.879480   -1.303000    2.865760
  O     -1.752130   -0.741530   -2.896280
  H     -2.036450   -0.920500   -1.984040
  H     -0.921210   -1.242140   -2.984230
  O     -0.885520    1.737840    0.052730
  H     -1.032320    2.090180   -0.841890
  H     -1.284090    0.839590    0.017130
  O     -1.737840   -0.885520   -0.052730
  H     -2.090180   -1.032320    0.841890
  H     -0.839590   -1.284090   -0.017130
  O      1.752130    0.741530   -2.896280
  H      2.036450    0.920500   -1.984040
  H      0.921210    1.242140   -2.984230
  O     -0.741530    1.752130    2.896280
  H     -0.920500    2.036450    1.984040
  H     -1.242140    0.921210    2.984230

 Total Charge           Charge          ....    0
 Multiplicity           Mult            ....    1
 Number of Electrons    NEL             ....   60
 Basis Dimension        Dim             ....  258

ORBITAL ENERGIES
----------------

  NO   OCC          E(Eh)            E(eV)
   0   2.0000     -20.631840      -561.4209
   1   2.0000     -20.608985      -560.7990
   2   2.0000     -20.562097      -559.5231
   3   2.0000     -20.554820      -559.3251
   4   2.0000     -20.546868      -559.1087
   5   2.0000     -20.512421      -558.1714
   6   2.0000      -1.413189       -38.4548
   7   2.0000      -1.393818       -37.9277
   8   2.0000      -1.341206       -36.4961
   9   2.0000      -1.338207       -36.4145
  10   2.0000      -1.328726       -36.1565
  11   2.0000      -1.297546       -35.3080
  12   2.0000      -0.778149       -21.1745
  13   2.0000      -0.757954       -20.6250
  14   2.0000      -0.713336       -19.4109
  15   2.0000      -0.704023       -19.1574
  16   2.0000      -0.699319       -19.0294
  17   2.0000      -0.680326       -18.5126
  18   2.0000      -0.656259       -17.8577
  19   2.0000      -0.624856       -17.0032
  20   2.0000      -0.600126       -16.3303
  21   2.0000      -0.579263       -15.7625
  22   2.0000      -0.576425       -15.6853
  23   2.0000      -0.558233       -15.1903
  24   2.0000      -0.542411       -14.7598
  25   2.0000      -0.528277       -14.3752
  26   2.0000      -0.507384       -13.8066
  27   2.0000      -0.501966       -13.6592
  28   2.0000      -0.492505       -13.4017
  29   2.0000      -0.462023       -12.5723
  30   0.0000       0.073219         1.9924
  31   0.0000       0.105175         2.8620
  32   0.0000       0.136775         3.7218
  33   0.0000       0.160034         4.3547
  34   0.0000       0.172226         4.6865

MULLIKEN ATOMIC CHARGES
-----------------------
   0 O :   -0.716134
   1 H :    0.371403
   2 H :    0.370073
   3 O :   -0.699784
   4 H :    0.368543
   5 H :    0.330782
   6 O :   -0.725072
   7 H :    0.338146
   8 H :    0.357524
   9 O :   -0.718364
  10 H :    0.391007
  11 H :    0.349248
  12 O :   -0.682584
  13 H :    0.339918
  14 H :    0.340790
  15 O :   -0.721446
  16 H :    0.371509
  17 H :    0.334440
Sum of atomic charges:   -0.0000000

LOEWDIN ATOMIC CHARGES
----------------------
   0 O :   -0.286926
   1 H :    0.171301
   2 H :    0.191971
   3 O :   -0.337995
   4 H :    0.149602
   5 H :    0.160932
   6 O :   -0.338422
   7 H :    0.161444
   8 H :    0.142703
   9 O :   -0.280873
  10 H :    0.157454
  11 H :    0.175166
  12 O :   -0.332285
  13 H :    0.165443
  14 H :    0.165126
  15 O :   -0.353424
  16 H :    0.152023
  17 H :    0.136760

  Mayer bond orders larger than 0.100000
B(  0-O ,  1-H ) :   0.8280 B(  0-O ,  2-H ) :   0.8210 B(  3-O ,  4-H ) :   0.8234
B(  3-O ,  5-H ) :   0.8531 B(  6-O ,  7-H ) :   0.8478 B(  6-O ,  8-H ) :   0.7868
B(  9-O , 10-H ) :   0.7922 B(  9-O , 11-H ) :   0.8356 B( 12-O , 13-H ) :   0.8504
B( 12-O , 14-H ) :   0.8469 B( 15-O , 16-H ) :   0.8193 B( 15-O , 17-H ) :   0.8447

MP2 TOTAL ENERGY:     -457.914149203 Eh
FINAL SINGLE POINT ENERGY      -457.914149202966

DIPOLE MOMENT
-------------
                                X             Y             Z
Electronic contribution:     -0.14408      -0.02321       0.00195
Nuclear contribution   :     -0.25623      -2.04245       1.31870
                        -----------------------------------------
Total Dipole Moment    :     -0.40031      -2.06567       1.32065
                        -----------------------------------------
Magnitude (a.u.)       :      2.48422
Magnitude (Debye)      :      6.31439

Rotational constants in cm-1:     0.059571     0.024866     0.019778
Rotational constants in MHz :  1785.883188   745.466472   592.915934

                             ****ORCA TERMINATED NORMALLY****
TOTAL RUN TIME: 0 days 0 hours 0 minutes 59 seconds 727 msec
