                         Program Version 4.2.0 -  RELEASE  -
|  1> # 12h2o.su.etal.mol1,2,4,5,10
|  2> ! MP2 def2-TZVP EnGrad TightSCF
|  3>
|  4> %pal
|  5>     nprocs 6
|  6> end
|  7>
|  8> %maxcore 8000
|  9>
| 10> %scf
| 11>     ConvForced true
| 12> end
| 13>
| 14> *xyz 0 1
| 15> O  -1.794470000  -0.923410000   2.768350000
| 16> H  -2.338250000  -1.359750000   3.430940000
| 17> H  -0.879480000  -1.303000000   2.865760000
| 18> O   0.923410000  -1.794470000  -2.768350000
| 19> H   1.359750000  -2.338250000  -3.430940000
| 20> H   1.303000000  -0.879480000  -2.865760000
| 21> O  -0.885520000   1.737840000   0.052730000
| 22> H  -1.032320000   2.090180000  -0.841890000
| 23> H  -1.284090000   0.839590000   0.017130000
| 24> O   0.885520000  -1.737840000   0.052730000
| 25> H   1.284090000  -0.839590000   0.017130000
| 26> H   1.032320000  -2.090180000  -0.841890000
| 27> O  -0.923410000   1.794470000  -2.768350000
| 28> H  -1.359750000   2.338250000  -3.430940000
| 29> H  -1.303000000   0.879480000  -2.865760000
| 30> *
| 31>
| 32>                          ****END OF INPUT****

CARTESIAN COORDINATES (ANGSTROEM)
---------------------------------
  O     -1.794470   -0.923410    2.768350
  H     -2.338250   -1.359750    3.430940
  H     -0.879480   -1.303000    2.865760
  O      0.923410   -1.794470   -2.768350
  H      1.359750   -2.338250   -3.430940
  H      1.303000   -0.879480   -2.865760
  O     -0.885520    1.737840    0.052730
  H     -1.032320    2.090180   -0.841890
  H     -1.284090    0.839590    0.017130
  O      0.885520   -1.737840    0.052730
  H      1.284090   -0.839590    0.017130
  H      1.032320   -2.090180   -0.841890
  O     -0.923410    1.794470   -2.768350
  H     -1.359750    2.338250   -3.430940
  H     -1.303000    0.879480   -2.865760

 Total Charge           Charge          ....    0
 Multiplicity           Mult            ....    1
 Number of Electrons    NEL             ....   50
 Basis Dimension        Dim             ....  215

ORBITAL ENERGIES
----------------

  NO   OCC          E(Eh)            E(eV)
   0   2.0000     -20.595054      -560.4199
   1   2.0000     -20.591215      -560.3154
   2   2.0000     -20.541853      -558.9722
   3   2.0000     -20.530465      -558.6623
   4   2.0000     -20.517767      -558.3168
   5   2.0000      -1.372887       -37.3582
   6   2.0000      -1.369025       -37.2531
   7   2.0000      -1.317198       -35.8428
   8   2.0000      -1.309462       -35.6323
   9   2.0000      -1.296845       -35.2890
  10   2.0000      -0.740119       -20.1397
  11   2.0000      -0.735354       -20.0100
  12   2.0000      -0.685489       -18.6531
  13   2.0000      -0.679507       -18.4903
  14   2.0000      -0.667467       -18.1627
  15   2.0000      -0.609154       -16.5759
  16   2.0000      -0.603951       -16.4343
  17   2.0000      -0.560625       -15.2554
  18   2.0000      -0.553527       -15.0622
  19   2.0000      -0.552099       -15.0234
  20   2.0000      -0.526714       -14.3326
  21   2.0000      -0.518417       -14.1068
  22   2.0000      -0.485056       -13.1990
  23   2.0000      -0.476322       -12.9614
  24   2.0000      -0.463073       -12.6009
  25   0.0000       0.090992         2.4760
  26   0.0000       0.124553         3.3892
  27   0.0000       0.142272         3.8714
  28   0.0000       0.171009         4.6534
  29   0.0000       0.182586         4.9684

MULLIKEN ATOMIC CHARGES
-----------------------
   0 O :   -0.683156
   1 H :    0.330781
   2 H :    0.352624
   3 O :   -0.698638
   4 H :    0.351520
   5 H :    0.356865
   6 O :   -0.701129
   7 H :    0.357387
   8 H :    0.334790
   9 O :   -0.700850
  10 H :    0.328611
  11 H :    0.363010
  12 O :   -0.698926
  13 H :    0.350714
  14 H :    0.356399
Sum of atomic charges:    0.0000000

LOEWDIN ATOMIC CHARGES
----------------------
   0 O :   -0.338643
   1 H :    0.154387
   2 H :    0.184191
   3 O :   -0.312145
   4 H :    0.163147
   5 H :    0.185337
   6 O :   -0.347670
   7 H :    0.145301
   8 H :    0.166442
   9 O :   -0.347674
  10 H :    0.164702
  11 H :    0.147791
  12 O :   -0.312831
  13 H :    0.162691
  14 H :    0.184972

  Mayer bond orders larger than 0.100000
B(  0-O ,  1-H ) :   0.8570 B(  0-O ,  2-H ) :   0.8378 B(  3-O ,  4-H ) :   0.8417
B(  3-O ,  5-H ) :   0.8305 B(  6-O ,  7-H ) :   0.8276 B(  6-O ,  8-H ) :   0.8468
B(  9-O , 10-H ) :   0.8517 B(  9-O , 11-H ) :   0.8229 B( 12-O , 13-H ) :   0.8421
B( 12-O , 14-H ) :   0.8308

MP2 TOTAL ENERGY:     -381.579233140 Eh
FINAL SINGLE POINT ENERGY      -381.579233139517

DIPOLE MOMENT
-------------
                                X             Y             Z
Electronic contribution:     -0.04992       0.09419       0.01200
Nuclear contribution   :      0.30898      -0.67915      -2.18115
                        -----------------------------------------
Total Dipole Moment    :      0.25906      -0.58495      -2.16915
                        -----------------------------------------
Magnitude (a.u.)       :      2.26153
Magnitude (Debye)      :      5.74834

Rotational constants in cm-1:     0.054774     0.036379     0.023184
Rotational constants in MHz :  1642.070337  1090.615474   695.044427

                             ****ORCA TERMINATED NORMALLY****
TOTAL RUN TIME: 0 days 0 hours 0 minutes 29 seconds 690 msec
