                         Program Version 4.2.0 -  RELEASE  -
|  1> # 12meoh.boyd.etal.mol5,6,10
|  2> ! MP2 def2-TZVP EnGrad TightSCF
|  3>
|  4> %pal
|  5>     nprocs 6
|  6> end
|  7>
|  8> %maxcore 8000
|  9>
| 10> %scf
| 11>     ConvForced true
| 12> end
| 13>
| 14> *xyz 0 1
| 15> O  -0.662721750   1.449094618  -1.383082065
| 16> H   0.064188300   2.119867608  -1.465650660
| 17> C  -0.353319239   0.341218776  -2.229326771
| 18> H  -1.072358530  -0.454743281  -2.019906495
| 19> H   0.657636746  -0.044472139  -2.042736771
| 20> H  -0.434616607   0.624733901  -3.287793021
| 21> O   2.622209273  -1.703002590  -1.445859723
| 22> H   1.828551432  -1.986513781  -0.909754968
| 23> C   2.781117675  -2.615822239  -2.525472890
| 24> H   3.691063626  -2.339003544  -3.065143454
| 25> H   1.934727323  -2.559520367  -3.223226661
| 26> H   2.879948338  -3.653846211  -2.177750170
| 27> O  -5.201143618   0.064582726  -0.172223772
| 28> H  -4.686891530   0.869258890   0.107806143
| 29> C  -6.513192168   0.171391798   0.359883449
| 30> H  -7.049381312  -0.749234190   0.111361174
| 31> H  -7.057741163   1.017801101  -0.081819420
| 32> H  -6.514770575   0.292264928   1.453058834
| 33> *
| 34>
| 35>                          ****END OF INPUT****

CARTESIAN COORDINATES (ANGSTROEM)
---------------------------------
  O     -0.662722    1.449095   -1.383082
  H      0.064188    2.119868   -1.465651
  C     -0.353319    0.341219   -2.229327
  H     -1.072359   -0.454743   -2.019906
  H      0.657637   -0.044472   -2.042737
  H     -0.434617    0.624734   -3.287793
  O      2.622209   -1.703003   -1.445860
  H      1.828551   -1.986514   -0.909755
  C      2.781118   -2.615822   -2.525473
  H      3.691064   -2.339004   -3.065143
  H      1.934727   -2.559520   -3.223227
  H      2.879948   -3.653846   -2.177750
  O     -5.201144    0.064583   -0.172224
  H     -4.686892    0.869259    0.107806
  C     -6.513192    0.171392    0.359883
  H     -7.049381   -0.749234    0.111361
  H     -7.057741    1.017801   -0.081819
  H     -6.514771    0.292265    1.453059

 Total Charge           Charge          ....    0
 Multiplicity           Mult            ....    1
 Number of Electrons    NEL             ....   54
 Basis Dimension        Dim             ....  258

ORBITAL ENERGIES
----------------

  NO   OCC          E(Eh)            E(eV)
   0   2.0000     -20.563311      -559.5561
   1   2.0000     -20.551918      -559.2461
   2   2.0000     -20.551850      -559.2443
   3   2.0000     -11.275575      -306.8240
   4   2.0000     -11.267276      -306.5982
   5   2.0000     -11.264374      -306.5192
   6   2.0000      -1.351437       -36.7745
   7   2.0000      -1.342073       -36.5197
   8   2.0000      -1.340049       -36.4646
   9   2.0000      -0.923701       -25.1352
  10   2.0000      -0.914770       -24.8922
  11   2.0000      -0.914128       -24.8747
  12   2.0000      -0.686030       -18.6678
  13   2.0000      -0.677093       -18.4246
  14   2.0000      -0.675163       -18.3721
  15   2.0000      -0.623395       -16.9634
  16   2.0000      -0.612227       -16.6595
  17   2.0000      -0.609554       -16.5868
  18   2.0000      -0.595701       -16.2099
  19   2.0000      -0.586647       -15.9635
  20   2.0000      -0.585319       -15.9273
  21   2.0000      -0.504574       -13.7302
  22   2.0000      -0.495251       -13.4765
  23   2.0000      -0.494836       -13.4652
  24   2.0000      -0.455701       -12.4003
  25   2.0000      -0.443467       -12.0673
  26   2.0000      -0.441488       -12.0135
  27   0.0000       0.125917         3.4264
  28   0.0000       0.137214         3.7338
  29   0.0000       0.149019         4.0550
  30   0.0000       0.170400         4.6368
  31   0.0000       0.178511         4.8575

MULLIKEN ATOMIC CHARGES
-----------------------
   0 O :   -0.507281
   1 H :    0.323189
   2 C :   -0.192047
   3 H :    0.130058
   4 H :    0.123071
   5 H :    0.108355
   6 O :   -0.495801
   7 H :    0.329188
   8 C :   -0.176250
   9 H :    0.130551
  10 H :    0.110874
  11 H :    0.116284
  12 O :   -0.497952
  13 H :    0.327628
  14 C :   -0.172501
  15 H :    0.126479
  16 H :    0.108076
  17 H :    0.108078
Sum of atomic charges:    0.0000000

LOEWDIN ATOMIC CHARGES
----------------------
   0 O :   -0.115490
   1 H :    0.189072
   2 C :   -0.383152
   3 H :    0.109309
   4 H :    0.097343
   5 H :    0.095600
   6 O :   -0.105842
   7 H :    0.193220
   8 C :   -0.383173
   9 H :    0.110790
  10 H :    0.094839
  11 H :    0.097575
  12 O :   -0.106894
  13 H :    0.193758
  14 C :   -0.386071
  15 H :    0.109391
  16 H :    0.094809
  17 H :    0.094915

  Mayer bond orders larger than 0.100000
B(  0-O ,  1-H ) :   0.8421 B(  0-O ,  2-C ) :   0.9129 B(  2-C ,  3-H ) :   0.9340
B(  2-C ,  4-H ) :   0.9343 B(  2-C ,  5-H ) :   0.9369 B(  6-O ,  7-H ) :   0.8361
B(  6-O ,  8-C ) :   0.9183 B(  8-C ,  9-H ) :   0.9382 B(  8-C , 10-H ) :   0.9373
B(  8-C , 11-H ) :   0.9393 B( 12-O , 13-H ) :   0.8380 B( 12-O , 14-C ) :   0.9315
B( 14-C , 15-H ) :   0.9380 B( 14-C , 16-H ) :   0.9390 B( 14-C , 17-H ) :   0.9385

MP2 TOTAL ENERGY:     -346.522614318 Eh
FINAL SINGLE POINT ENERGY      -346.522614317831

DIPOLE MOMENT
-------------
                                X             Y             Z
Electronic contribution:      1.13439       2.21061       1.68670
Nuclear contribution   :     -1.09774      -2.30202      -1.79954
                        -----------------------------------------
Total Dipole Moment    :      0.03665      -0.09141      -0.11284
                        -----------------------------------------
Magnitude (a.u.)       :      0.14977
Magnitude (Debye)      :      0.38069

Rotational constants in cm-1:     0.114094     0.012216     0.011387
Rotational constants in MHz :  3420.452806   366.219960   341.385002

                             ****ORCA TERMINATED NORMALLY****
TOTAL RUN TIME: 0 days 0 hours 0 minutes 51 seconds 326 msec
