                         Program Version 4.2.0 -  RELEASE  -
|  1> ! MP2 def2-TZVP EnGrad TightSCF FrozenCore
|  2>
|  3> %pal
|  4>     nprocs 8
|  5> end
|  6>
|  7> %maxcore 8000
|  8>
|  9> %scf
| 10>     ConvForced true
| 11> end
| 12>
| 13> *xyz 0 1
| 14> O          0.00000        0.00000        0.00000
| 15> H          0.97280        0.00000        0.00000
| 16> H         -0.18000        0.00000       -0.96648
| 17> O          0.10169        0.49343       -2.75007
| 18> H          1.05637        0.55697       -2.57102
| 19> H         -0.19283        1.42221       -2.75889
| 20> O          2.55727        0.79340       -1.16609
| 21> H          3.51287        0.66972       -1.21469
| 22> H          2.42632        1.75395       -0.98231
| 23> O          1.80474        3.37960       -0.65145
| 24> H          1.28776        3.65410       -1.42657
| 25> H          1.10375        3.24322        0.01251
| 26> O         -0.67842        2.52503        0.50718
| 27> H         -0.48332        1.54915        0.42466
| 28> H         -1.24033        2.61749        1.28587
| 29> O         -0.70968        3.23420       -2.17182
| 30> H         -1.44144        3.72573       -2.56469
| 31> H         -0.96750        3.07402       -1.23916
| 32> *
| 33>
| 34>
| 35>                          ****END OF INPUT****

CARTESIAN COORDINATES (ANGSTROEM)
---------------------------------
  O      0.000000    0.000000    0.000000
  H      0.972800    0.000000    0.000000
  H     -0.180000    0.000000   -0.966480
  O      0.101690    0.493430   -2.750070
  H      1.056370    0.556970   -2.571020
  H     -0.192830    1.422210   -2.758890
  O      2.557270    0.793400   -1.166090
  H      3.512870    0.669720   -1.214690
  H      2.426320    1.753950   -0.982310
  O      1.804740    3.379600   -0.651450
  H      1.287760    3.654100   -1.426570
  H      1.103750    3.243220    0.012510
  O     -0.678420    2.525030    0.507180
  H     -0.483320    1.549150    0.424660
  H     -1.240330    2.617490    1.285870
  O     -0.709680    3.234200   -2.171820
  H     -1.441440    3.725730   -2.564690
  H     -0.967500    3.074020   -1.239160

 Total Charge           Charge          ....    0
 Multiplicity           Mult            ....    1
 Number of Electrons    NEL             ....   60
 Basis Dimension        Dim             ....  258

ORBITAL ENERGIES
----------------

  NO   OCC          E(Eh)            E(eV)
   0   2.0000     -20.577957      -559.9547
   1   2.0000     -20.573455      -559.8322
   2   2.0000     -20.561809      -559.5153
   3   2.0000     -20.561792      -559.5148
   4   2.0000     -20.550478      -559.2069
   5   2.0000     -20.541434      -558.9608
   6   2.0000      -1.373074       -37.3633
   7   2.0000      -1.358409       -36.9642
   8   2.0000      -1.354609       -36.8608
   9   2.0000      -1.344897       -36.5965
  10   2.0000      -1.334620       -36.3169
  11   2.0000      -1.323251       -36.0075
  12   2.0000      -0.745741       -20.2926
  13   2.0000      -0.729308       -19.8455
  14   2.0000      -0.722908       -19.6713
  15   2.0000      -0.708232       -19.2720
  16   2.0000      -0.698036       -18.9945
  17   2.0000      -0.694027       -18.8854
  18   2.0000      -0.627525       -17.0758
  19   2.0000      -0.620753       -16.8915
  20   2.0000      -0.597798       -16.2669
  21   2.0000      -0.586609       -15.9624
  22   2.0000      -0.577389       -15.7116
  23   2.0000      -0.552220       -15.0267
  24   2.0000      -0.524422       -14.2703
  25   2.0000      -0.523093       -14.2341
  26   2.0000      -0.511588       -13.9210
  27   2.0000      -0.507825       -13.8186
  28   2.0000      -0.499031       -13.5793
  29   2.0000      -0.484242       -13.1769
  30   0.0000       0.113309         3.0833
  31   0.0000       0.142694         3.8829
  32   0.0000       0.149066         4.0563
  33   0.0000       0.204326         5.5600
  34   0.0000       0.212690         5.7876

MULLIKEN ATOMIC CHARGES
-----------------------
   0 O :   -0.727136
   1 H :    0.367820
   2 H :    0.385294
   3 O :   -0.728644
   4 H :    0.362467
   5 H :    0.367989
   6 O :   -0.747738
   7 H :    0.345510
   8 H :    0.379693
   9 O :   -0.717703
  10 H :    0.368952
  11 H :    0.372450
  12 O :   -0.764528
  13 H :    0.392638
  14 H :    0.352878
  15 O :   -0.731538
  16 H :    0.349046
  17 H :    0.372548
Sum of atomic charges:   -0.0000000

LOEWDIN ATOMIC CHARGES
----------------------
   0 O :   -0.293972
   1 H :    0.157692
   2 H :    0.155839
   3 O :   -0.311679
   4 H :    0.151874
   5 H :    0.148620
   6 O :   -0.331070
   7 H :    0.161112
   8 H :    0.149184
   9 O :   -0.294727
  10 H :    0.159932
  11 H :    0.155407
  12 O :   -0.323937
  13 H :    0.150520
  14 H :    0.162370
  15 O :   -0.314908
  16 H :    0.164521
  17 H :    0.153220

  Mayer bond orders larger than 0.100000
B(  0-O ,  1-H ) :   0.8156 B(  0-O ,  2-H ) :   0.7768 B(  0-O , 13-H ) :   0.1306
B(  3-O ,  4-H ) :   0.8152 B(  3-O ,  5-H ) :   0.8098 B(  6-O ,  7-H ) :   0.8446
B(  6-O ,  8-H ) :   0.7588 B(  9-O , 10-H ) :   0.8198 B(  9-O , 11-H ) :   0.8055
B( 12-O , 13-H ) :   0.7185 B( 12-O , 14-H ) :   0.8398 B( 15-O , 16-H ) :   0.8417
B( 15-O , 17-H ) :   0.7786

MP2 TOTAL ENERGY:     -457.961330732 Eh
FINAL SINGLE POINT ENERGY      -457.961330731827

DIPOLE MOMENT
-------------
                                X             Y             Z
Electronic contribution:     -0.00173      -0.13987      -0.01516
Nuclear contribution   :     -0.24700       1.17799       0.38599
                        -----------------------------------------
Total Dipole Moment    :     -0.24873       1.03812       0.37083
                        -----------------------------------------
Magnitude (a.u.)       :      1.13008
Magnitude (Debye)      :      2.87242

Rotational constants in cm-1:     0.056674     0.047190     0.045326
Rotational constants in MHz :  1699.029642  1414.734856  1358.847881

                             ****ORCA TERMINATED NORMALLY****
TOTAL RUN TIME: 0 days 0 hours 1 minutes 29 seconds 534 msec
