                         Program Version 4.2.0 -  RELEASE  -
|  1> # 12h2o.su.etal.mol3,4,6,7,9,10,11
|  2> ! MP2 def2-TZVP EnGrad TightSCF
|  3>
|  4> %pal
|  5>     nprocs 6
|  6> end
|  7>
|  8> %maxcore 8000
|  9>
| 10> %scf
| 11>     ConvForced true
| 12> end
| 13>
| 14> *xyz 0 1
| 15> O  -1.752130000  -0.741530000  -2.896280000
| 16> H  -2.036450000  -0.920500000  -1.984040000
| 17> H  -0.921210000  -1.242140000  -2.984230000
| 18> O  -0.885520000   1.737840000   0.052730000
| 19> H  -1.032320000   2.090180000  -0.841890000
| 20> H  -1.284090000   0.839590000   0.017130000
| 21> O   1.737840000   0.885520000  -0.052730000
| 22> H   2.090180000   1.032320000   0.841890000
| 23> H   0.839590000   1.284090000  -0.017130000
| 24> O  -1.737840000  -0.885520000  -0.052730000
| 25> H  -2.090180000  -1.032320000   0.841890000
| 26> H  -0.839590000  -1.284090000  -0.017130000
| 27> O   0.741530000  -1.752130000   2.896280000
| 28> H   0.920500000  -2.036450000   1.984040000
| 29> H   1.242140000  -0.921210000   2.984230000
| 30> O  -0.923410000   1.794470000  -2.768350000
| 31> H  -1.359750000   2.338250000  -3.430940000
| 32> H  -1.303000000   0.879480000  -2.865760000
| 33> O  -0.741530000   1.752130000   2.896280000
| 34> H  -0.920500000   2.036450000   1.984040000
| 35> H  -1.242140000   0.921210000   2.984230000
| 36> *
| 37>
| 38>                          ****END OF INPUT****

CARTESIAN COORDINATES (ANGSTROEM)
---------------------------------
  O     -1.752130   -0.741530   -2.896280
  H     -2.036450   -0.920500   -1.984040
  H     -0.921210   -1.242140   -2.984230
  O     -0.885520    1.737840    0.052730
  H     -1.032320    2.090180   -0.841890
  H     -1.284090    0.839590    0.017130
  O      1.737840    0.885520   -0.052730
  H      2.090180    1.032320    0.841890
  H      0.839590    1.284090   -0.017130
  O     -1.737840   -0.885520   -0.052730
  H     -2.090180   -1.032320    0.841890
  H     -0.839590   -1.284090   -0.017130
  O      0.741530   -1.752130    2.896280
  H      0.920500   -2.036450    1.984040
  H      1.242140   -0.921210    2.984230
  O     -0.923410    1.794470   -2.768350
  H     -1.359750    2.338250   -3.430940
  H     -1.303000    0.879480   -2.865760
  O     -0.741530    1.752130    2.896280
  H     -0.920500    2.036450    1.984040
  H     -1.242140    0.921210    2.984230

 Total Charge           Charge          ....    0
 Multiplicity           Mult            ....    1
 Number of Electrons    NEL             ....   70
 Basis Dimension        Dim             ....  301

ORBITAL ENERGIES
----------------

  NO   OCC          E(Eh)            E(eV)
   0   2.0000     -20.641289      -561.6780
   1   2.0000     -20.595730      -560.4383
   2   2.0000     -20.580528      -560.0246
   3   2.0000     -20.559485      -559.4520
   4   2.0000     -20.548467      -559.1522
   5   2.0000     -20.542975      -559.0028
   6   2.0000     -20.531352      -558.6865
   7   2.0000      -1.424627       -38.7661
   8   2.0000      -1.383998       -37.6605
   9   2.0000      -1.359375       -36.9905
  10   2.0000      -1.353904       -36.8416
  11   2.0000      -1.330638       -36.2085
  12   2.0000      -1.324070       -36.0298
  13   2.0000      -1.311281       -35.6818
  14   2.0000      -0.783375       -21.3167
  15   2.0000      -0.746512       -20.3136
  16   2.0000      -0.727481       -19.7958
  17   2.0000      -0.722191       -19.6518
  18   2.0000      -0.717253       -19.5174
  19   2.0000      -0.694429       -18.8964
  20   2.0000      -0.685037       -18.6408
  21   2.0000      -0.667568       -18.1654
  22   2.0000      -0.618805       -16.8385
  23   2.0000      -0.618255       -16.8236
  24   2.0000      -0.597217       -16.2511
  25   2.0000      -0.575259       -15.6536
  26   2.0000      -0.572405       -15.5759
  27   2.0000      -0.567344       -15.4382
  28   2.0000      -0.546567       -14.8728
  29   2.0000      -0.528114       -14.3707
  30   2.0000      -0.524705       -14.2780
  31   2.0000      -0.502646       -13.6777
  32   2.0000      -0.498106       -13.5542
  33   2.0000      -0.488666       -13.2973
  34   2.0000      -0.479232       -13.0406
  35   0.0000       0.065259         1.7758
  36   0.0000       0.119679         3.2566
  37   0.0000       0.123914         3.3719
  38   0.0000       0.142969         3.8904
  39   0.0000       0.163084         4.4377

MULLIKEN ATOMIC CHARGES
-----------------------
   0 O :   -0.690099
   1 H :    0.384966
   2 H :    0.354114
   3 O :   -0.748598
   4 H :    0.389566
   5 H :    0.345175
   6 O :   -0.725647
   7 H :    0.322936
   8 H :    0.368560
   9 O :   -0.715240
  10 H :    0.378042
  11 H :    0.365762
  12 O :   -0.679448
  13 H :    0.327817
  14 H :    0.352219
  15 O :   -0.734602
  16 H :    0.338369
  17 H :    0.371812
  18 O :   -0.696147
  19 H :    0.376274
  20 H :    0.314170
Sum of atomic charges:   -0.0000000

LOEWDIN ATOMIC CHARGES
----------------------
   0 O :   -0.271522
   1 H :    0.157722
   2 H :    0.174299
   3 O :   -0.300658
   4 H :    0.155637
   5 H :    0.136977
   6 O :   -0.363137
   7 H :    0.153942
   8 H :    0.142190
   9 O :   -0.274753
  10 H :    0.180596
  11 H :    0.181047
  12 O :   -0.328844
  13 H :    0.158414
  14 H :    0.170596
  15 O :   -0.338069
  16 H :    0.155035
  17 H :    0.144178
  18 O :   -0.338388
  19 H :    0.151945
  20 H :    0.152794

  Mayer bond orders larger than 0.100000
B(  0-O ,  1-H ) :   0.8086 B(  0-O ,  2-H ) :   0.8392 B(  3-O ,  4-H ) :   0.7844
B(  3-O ,  5-H ) :   0.7940 B(  6-O ,  7-H ) :   0.8590 B(  6-O ,  8-H ) :   0.7861
B(  9-O , 10-H ) :   0.8221 B(  9-O , 11-H ) :   0.8196 B( 12-O , 13-H ) :   0.8561
B( 12-O , 14-H ) :   0.8388 B( 15-O , 16-H ) :   0.8499 B( 15-O , 17-H ) :   0.7645
B( 18-O , 19-H ) :   0.8114 B( 18-O , 20-H ) :   0.8627

MP2 TOTAL ENERGY:     -534.244380425 Eh
FINAL SINGLE POINT ENERGY      -534.244380424907

DIPOLE MOMENT
-------------
                                X             Y             Z
Electronic contribution:     -0.27192      -0.12876      -0.19404
Nuclear contribution   :     -0.67812      -1.32903      -0.54442
                        -----------------------------------------
Total Dipole Moment    :     -0.95004      -1.45779      -0.73846
                        -----------------------------------------
Magnitude (a.u.)       :      1.89026
Magnitude (Debye)      :      4.80465

Rotational constants in cm-1:     0.044797     0.021800     0.019302
Rotational constants in MHz :  1342.979123   653.554432   578.664364

                             ****ORCA TERMINATED NORMALLY****
TOTAL RUN TIME: 0 days 0 hours 2 minutes 2 seconds 714 msec
