                         Program Version 4.2.0 -  RELEASE  -
|  1> # 12meoh.boyd.etal.mol0,6
|  2> ! MP2 def2-TZVP EnGrad TightSCF
|  3>
|  4> %pal
|  5>     nprocs 6
|  6> end
|  7>
|  8> %maxcore 8000
|  9>
| 10> %scf
| 11>     ConvForced true
| 12> end
| 13>
| 14> *xyz 0 1
| 15> O  -1.776108874  -2.741384797  -1.019308298
| 16> H  -2.520094035  -2.452295987  -0.420778302
| 17> C  -2.174025166  -3.952700964  -1.647004581
| 18> H  -1.359803895  -4.272673416  -2.304149236
| 19> H  -3.075973971  -3.808692420  -2.256751112
| 20> H  -2.370225393  -4.752784761  -0.918966137
| 21> O   2.622209273  -1.703002590  -1.445859723
| 22> H   1.828551432  -1.986513781  -0.909754968
| 23> C   2.781117675  -2.615822239  -2.525472890
| 24> H   3.691063626  -2.339003544  -3.065143454
| 25> H   1.934727323  -2.559520367  -3.223226661
| 26> H   2.879948338  -3.653846211  -2.177750170
| 27> *
| 28>
| 29>                          ****END OF INPUT****

CARTESIAN COORDINATES (ANGSTROEM)
---------------------------------
  O     -1.776109   -2.741385   -1.019308
  H     -2.520094   -2.452296   -0.420778
  C     -2.174025   -3.952701   -1.647005
  H     -1.359804   -4.272673   -2.304149
  H     -3.075974   -3.808692   -2.256751
  H     -2.370225   -4.752785   -0.918966
  O      2.622209   -1.703003   -1.445860
  H      1.828551   -1.986514   -0.909755
  C      2.781118   -2.615822   -2.525473
  H      3.691064   -2.339004   -3.065143
  H      1.934727   -2.559520   -3.223227
  H      2.879948   -3.653846   -2.177750

 Total Charge           Charge          ....    0
 Multiplicity           Mult            ....    1
 Number of Electrons    NEL             ....   36
 Basis Dimension        Dim             ....  172

ORBITAL ENERGIES
----------------

  NO   OCC          E(Eh)            E(eV)
   0   2.0000     -20.566142      -559.6332
   1   2.0000     -20.547746      -559.1326
   2   2.0000     -11.278308      -306.8984
   3   2.0000     -11.263987      -306.5087
   4   2.0000      -1.355125       -36.8748
   5   2.0000      -1.336076       -36.3565
   6   2.0000      -0.926110       -25.2007
   7   2.0000      -0.911271       -24.7970
   8   2.0000      -0.689365       -18.7586
   9   2.0000      -0.671622       -18.2758
  10   2.0000      -0.624425       -16.9915
  11   2.0000      -0.608533       -16.5590
  12   2.0000      -0.598909       -16.2971
  13   2.0000      -0.582479       -15.8501
  14   2.0000      -0.508059       -13.8250
  15   2.0000      -0.491235       -13.3672
  16   2.0000      -0.456551       -12.4234
  17   2.0000      -0.439848       -11.9689
  18   0.0000       0.118801         3.2327
  19   0.0000       0.149098         4.0572
  20   0.0000       0.164538         4.4773
  21   0.0000       0.189109         5.1459
  22   0.0000       0.217479         5.9179

MULLIKEN ATOMIC CHARGES
-----------------------
   0 O :   -0.500340
   1 H :    0.324788
   2 C :   -0.175230
   3 H :    0.127636
   4 H :    0.113066
   5 H :    0.111840
   6 O :   -0.503021
   7 H :    0.329121
   8 C :   -0.169282
   9 H :    0.126485
  10 H :    0.109541
  11 H :    0.105395
Sum of atomic charges:   -0.0000000

LOEWDIN ATOMIC CHARGES
----------------------
   0 O :   -0.111406
   1 H :    0.194208
   2 C :   -0.383898
   3 H :    0.109604
   4 H :    0.096634
   5 H :    0.095993
   6 O :   -0.111794
   7 H :    0.195487
   8 C :   -0.383302
   9 H :    0.108950
  10 H :    0.095239
  11 H :    0.094287

  Mayer bond orders larger than 0.100000
B(  0-O ,  1-H ) :   0.8398 B(  0-O ,  2-C ) :   0.9229 B(  2-C ,  3-H ) :   0.9376
B(  2-C ,  4-H ) :   0.9396 B(  2-C ,  5-H ) :   0.9381 B(  6-O ,  7-H ) :   0.8361
B(  6-O ,  8-C ) :   0.9305 B(  8-C ,  9-H ) :   0.9379 B(  8-C , 10-H ) :   0.9390
B(  8-C , 11-H ) :   0.9393

MP2 TOTAL ENERGY:     -231.014749040 Eh
FINAL SINGLE POINT ENERGY      -231.014749039691

DIPOLE MOMENT
-------------
                                X             Y             Z
Electronic contribution:      0.51267       2.73910       2.04530
Nuclear contribution   :     -1.61013      -3.59660      -2.02798
                        -----------------------------------------
Total Dipole Moment    :     -1.09747      -0.85750       0.01732
                        -----------------------------------------
Magnitude (a.u.)       :      1.39285
Magnitude (Debye)      :      3.54034

Rotational constants in cm-1:     0.436013     0.043281     0.040116
Rotational constants in MHz : 13071.347745  1297.539461  1202.648673

                             ****ORCA TERMINATED NORMALLY****
TOTAL RUN TIME: 0 days 0 hours 0 minutes 20 seconds 304 msec
