                         Program Version 4.2.0 -  RELEASE  -
|  1> # 12h2o.su.etal.mol1,4,5,6,7,9
|  2> ! MP2 def2-TZVP EnGrad TightSCF
|  3>
|  4> %pal
|  5>     nprocs 6
|  6> end
|  7>
|  8> %maxcore 8000
|  9>
| 10> %scf
| 11>     ConvForced true
| 12> end
| 13>
| 14> *xyz 0 1
| 15> O  -1.794470000  -0.923410000   2.768350000
| 16> H  -2.338250000  -1.359750000   3.430940000
| 17> H  -0.879480000  -1.303000000   2.865760000
| 18> O  -0.885520000   1.737840000   0.052730000
| 19> H  -1.032320000   2.090180000  -0.841890000
| 20> H  -1.284090000   0.839590000   0.017130000
| 21> O   0.885520000  -1.737840000   0.052730000
| 22> H   1.284090000  -0.839590000   0.017130000
| 23> H   1.032320000  -2.090180000  -0.841890000
| 24> O   1.737840000   0.885520000  -0.052730000
| 25> H   2.090180000   1.032320000   0.841890000
| 26> H   0.839590000   1.284090000  -0.017130000
| 27> O  -1.737840000  -0.885520000  -0.052730000
| 28> H  -2.090180000  -1.032320000   0.841890000
| 29> H  -0.839590000  -1.284090000  -0.017130000
| 30> O   0.741530000  -1.752130000   2.896280000
| 31> H   0.920500000  -2.036450000   1.984040000
| 32> H   1.242140000  -0.921210000   2.984230000
| 33> *
| 34>
| 35>                          ****END OF INPUT****

CARTESIAN COORDINATES (ANGSTROEM)
---------------------------------
  O     -1.794470   -0.923410    2.768350
  H     -2.338250   -1.359750    3.430940
  H     -0.879480   -1.303000    2.865760
  O     -0.885520    1.737840    0.052730
  H     -1.032320    2.090180   -0.841890
  H     -1.284090    0.839590    0.017130
  O      0.885520   -1.737840    0.052730
  H      1.284090   -0.839590    0.017130
  H      1.032320   -2.090180   -0.841890
  O      1.737840    0.885520   -0.052730
  H      2.090180    1.032320    0.841890
  H      0.839590    1.284090   -0.017130
  O     -1.737840   -0.885520   -0.052730
  H     -2.090180   -1.032320    0.841890
  H     -0.839590   -1.284090   -0.017130
  O      0.741530   -1.752130    2.896280
  H      0.920500   -2.036450    1.984040
  H      1.242140   -0.921210    2.984230

 Total Charge           Charge          ....    0
 Multiplicity           Mult            ....    1
 Number of Electrons    NEL             ....   60
 Basis Dimension        Dim             ....  258

ORBITAL ENERGIES
----------------

  NO   OCC          E(Eh)            E(eV)
   0   2.0000     -20.588374      -560.2381
   1   2.0000     -20.584851      -560.1423
   2   2.0000     -20.574456      -559.8594
   3   2.0000     -20.554506      -559.3166
   4   2.0000     -20.540460      -558.9343
   5   2.0000     -20.533112      -558.7344
   6   2.0000      -1.383746       -37.6536
   7   2.0000      -1.371551       -37.3218
   8   2.0000      -1.358904       -36.9777
   9   2.0000      -1.340369       -36.4733
  10   2.0000      -1.326633       -36.0995
  11   2.0000      -1.314449       -35.7680
  12   2.0000      -0.746232       -20.3060
  13   2.0000      -0.731762       -19.9122
  14   2.0000      -0.725513       -19.7422
  15   2.0000      -0.709204       -19.2984
  16   2.0000      -0.705072       -19.1860
  17   2.0000      -0.696701       -18.9582
  18   2.0000      -0.642353       -17.4793
  19   2.0000      -0.611029       -16.6269
  20   2.0000      -0.599166       -16.3041
  21   2.0000      -0.592627       -16.1262
  22   2.0000      -0.576577       -15.6895
  23   2.0000      -0.555740       -15.1224
  24   2.0000      -0.524353       -14.2684
  25   2.0000      -0.520160       -14.1543
  26   2.0000      -0.518049       -14.0968
  27   2.0000      -0.500855       -13.6290
  28   2.0000      -0.489041       -13.3075
  29   2.0000      -0.481411       -13.0998
  30   0.0000       0.093422         2.5421
  31   0.0000       0.140593         3.8257
  32   0.0000       0.154967         4.2169
  33   0.0000       0.155701         4.2368
  34   0.0000       0.198560         5.4031

MULLIKEN ATOMIC CHARGES
-----------------------
   0 O :   -0.737192
   1 H :    0.336055
   2 H :    0.371133
   3 O :   -0.719925
   4 H :    0.344351
   5 H :    0.379842
   6 O :   -0.743499
   7 H :    0.365538
   8 H :    0.364920
   9 O :   -0.712469
  10 H :    0.340636
  11 H :    0.373293
  12 O :   -0.735402
  13 H :    0.380143
  14 H :    0.350988
  15 O :   -0.690669
  16 H :    0.390243
  17 H :    0.342013
Sum of atomic charges:    0.0000000

LOEWDIN ATOMIC CHARGES
----------------------
   0 O :   -0.340726
   1 H :    0.153521
   2 H :    0.144039
   3 O :   -0.310680
   4 H :    0.164748
   5 H :    0.147253
   6 O :   -0.299896
   7 H :    0.144579
   8 H :    0.174395
   9 O :   -0.308711
  10 H :    0.162019
  11 H :    0.146578
  12 O :   -0.318872
  13 H :    0.150983
  14 H :    0.136550
  15 O :   -0.273134
  16 H :    0.159316
  17 H :    0.168038

  Mayer bond orders larger than 0.100000
B(  0-O ,  1-H ) :   0.8511 B(  0-O ,  2-H ) :   0.7630 B(  3-O ,  4-H ) :   0.8448
B(  3-O ,  5-H ) :   0.7522 B(  3-O , 11-H ) :   0.1244 B(  5-H , 12-O ) :   0.1155
B(  6-O ,  7-H ) :   0.7495 B(  6-O ,  8-H ) :   0.8322 B(  7-H ,  9-O ) :   0.1202
B(  9-O , 10-H ) :   0.8474 B(  9-O , 11-H ) :   0.7517 B( 12-O , 13-H ) :   0.7964
B( 12-O , 14-H ) :   0.7952 B( 15-O , 16-H ) :   0.7982 B( 15-O , 17-H ) :   0.8455

MP2 TOTAL ENERGY:     -457.948428444 Eh
FINAL SINGLE POINT ENERGY      -457.948428444155

DIPOLE MOMENT
-------------
                                X             Y             Z
Electronic contribution:      0.05017      -0.04628       0.03356
Nuclear contribution   :      0.87464      -0.22418      -0.05351
                        -----------------------------------------
Total Dipole Moment    :      0.92480      -0.27046      -0.01996
                        -----------------------------------------
Magnitude (a.u.)       :      0.96375
Magnitude (Debye)      :      2.44965

Rotational constants in cm-1:     0.056757     0.043778     0.034233
Rotational constants in MHz :  1701.524165  1312.427833  1026.281472

                             ****ORCA TERMINATED NORMALLY****
TOTAL RUN TIME: 0 days 0 hours 1 minutes 21 seconds 94 msec
