                         Program Version 4.2.0 -  RELEASE  -
|  1> # 12h2o.su.etal.mol0,1,2,3,4,5,9
|  2> ! MP2 def2-TZVP EnGrad TightSCF
|  3>
|  4> %pal
|  5>     nprocs 6
|  6> end
|  7>
|  8> %maxcore 8000
|  9>
| 10> %scf
| 11>     ConvForced true
| 12> end
| 13>
| 14> *xyz 0 1
| 15> O   1.794470000   0.923410000   2.768350000
| 16> H   2.338250000   1.359750000   3.430940000
| 17> H   0.879480000   1.303000000   2.865760000
| 18> O  -1.794470000  -0.923410000   2.768350000
| 19> H  -2.338250000  -1.359750000   3.430940000
| 20> H  -0.879480000  -1.303000000   2.865760000
| 21> O   0.923410000  -1.794470000  -2.768350000
| 22> H   1.359750000  -2.338250000  -3.430940000
| 23> H   1.303000000  -0.879480000  -2.865760000
| 24> O  -1.752130000  -0.741530000  -2.896280000
| 25> H  -2.036450000  -0.920500000  -1.984040000
| 26> H  -0.921210000  -1.242140000  -2.984230000
| 27> O  -0.885520000   1.737840000   0.052730000
| 28> H  -1.032320000   2.090180000  -0.841890000
| 29> H  -1.284090000   0.839590000   0.017130000
| 30> O   0.885520000  -1.737840000   0.052730000
| 31> H   1.284090000  -0.839590000   0.017130000
| 32> H   1.032320000  -2.090180000  -0.841890000
| 33> O   0.741530000  -1.752130000   2.896280000
| 34> H   0.920500000  -2.036450000   1.984040000
| 35> H   1.242140000  -0.921210000   2.984230000
| 36> *
| 37>
| 38>                          ****END OF INPUT****

CARTESIAN COORDINATES (ANGSTROEM)
---------------------------------
  O      1.794470    0.923410    2.768350
  H      2.338250    1.359750    3.430940
  H      0.879480    1.303000    2.865760
  O     -1.794470   -0.923410    2.768350
  H     -2.338250   -1.359750    3.430940
  H     -0.879480   -1.303000    2.865760
  O      0.923410   -1.794470   -2.768350
  H      1.359750   -2.338250   -3.430940
  H      1.303000   -0.879480   -2.865760
  O     -1.752130   -0.741530   -2.896280
  H     -2.036450   -0.920500   -1.984040
  H     -0.921210   -1.242140   -2.984230
  O     -0.885520    1.737840    0.052730
  H     -1.032320    2.090180   -0.841890
  H     -1.284090    0.839590    0.017130
  O      0.885520   -1.737840    0.052730
  H      1.284090   -0.839590    0.017130
  H      1.032320   -2.090180   -0.841890
  O      0.741530   -1.752130    2.896280
  H      0.920500   -2.036450    1.984040
  H      1.242140   -0.921210    2.984230

 Total Charge           Charge          ....    0
 Multiplicity           Mult            ....    1
 Number of Electrons    NEL             ....   70
 Basis Dimension        Dim             ....  301

ORBITAL ENERGIES
----------------

  NO   OCC          E(Eh)            E(eV)
   0   2.0000     -20.625886      -561.2589
   1   2.0000     -20.581632      -560.0547
   2   2.0000     -20.565185      -559.6071
   3   2.0000     -20.554326      -559.3116
   4   2.0000     -20.546175      -559.0898
   5   2.0000     -20.532823      -558.7265
   6   2.0000     -20.501604      -557.8770
   7   2.0000      -1.406027       -38.2599
   8   2.0000      -1.359759       -37.0009
   9   2.0000      -1.347143       -36.6576
  10   2.0000      -1.330242       -36.1977
  11   2.0000      -1.328362       -36.1466
  12   2.0000      -1.324089       -36.0303
  13   2.0000      -1.282755       -34.9055
  14   2.0000      -0.771660       -20.9979
  15   2.0000      -0.726612       -19.7721
  16   2.0000      -0.717897       -19.5350
  17   2.0000      -0.699823       -19.0431
  18   2.0000      -0.691718       -18.8226
  19   2.0000      -0.689631       -18.7658
  20   2.0000      -0.668675       -18.1956
  21   2.0000      -0.643021       -17.4975
  22   2.0000      -0.608608       -16.5611
  23   2.0000      -0.595466       -16.2035
  24   2.0000      -0.576481       -15.6868
  25   2.0000      -0.570791       -15.5320
  26   2.0000      -0.560699       -15.2574
  27   2.0000      -0.549591       -14.9551
  28   2.0000      -0.530191       -14.4272
  29   2.0000      -0.517098       -14.0709
  30   2.0000      -0.511016       -13.9054
  31   2.0000      -0.497331       -13.5331
  32   2.0000      -0.492923       -13.4131
  33   2.0000      -0.472564       -12.8591
  34   2.0000      -0.452514       -12.3135
  35   0.0000       0.081123         2.2075
  36   0.0000       0.117097         3.1864
  37   0.0000       0.135510         3.6874
  38   0.0000       0.156561         4.2603
  39   0.0000       0.174950         4.7606

MULLIKEN ATOMIC CHARGES
-----------------------
   0 O :   -0.707934
   1 H :    0.350788
   2 H :    0.379241
   3 O :   -0.741717
   4 H :    0.319480
   5 H :    0.369728
   6 O :   -0.714074
   7 H :    0.368483
   8 H :    0.369724
   9 O :   -0.703110
  10 H :    0.335672
  11 H :    0.355922
  12 O :   -0.689683
  13 H :    0.336424
  14 H :    0.350034
  15 O :   -0.714187
  16 H :    0.343485
  17 H :    0.370529
  18 O :   -0.719149
  19 H :    0.381534
  20 H :    0.358809
Sum of atomic charges:   -0.0000000

LOEWDIN ATOMIC CHARGES
----------------------
   0 O :   -0.313506
   1 H :    0.162968
   2 H :    0.194867
   3 O :   -0.378369
   4 H :    0.145932
   5 H :    0.141928
   6 O :   -0.286519
   7 H :    0.169932
   8 H :    0.191748
   9 O :   -0.343531
  10 H :    0.161136
  11 H :    0.145867
  12 O :   -0.338978
  13 H :    0.163837
  14 H :    0.172736
  15 O :   -0.323378
  16 H :    0.170417
  17 H :    0.150936
  18 O :   -0.290604
  19 H :    0.155516
  20 H :    0.147064

  Mayer bond orders larger than 0.100000
B(  0-O ,  1-H ) :   0.8426 B(  0-O ,  2-H ) :   0.8153 B(  3-O ,  4-H ) :   0.8631
B(  3-O ,  5-H ) :   0.7665 B(  5-H , 18-O ) :   0.1052 B(  6-O ,  7-H ) :   0.8295
B(  6-O ,  8-H ) :   0.8214 B(  9-O , 10-H ) :   0.8520 B(  9-O , 11-H ) :   0.8256
B( 12-O , 13-H ) :   0.8517 B( 12-O , 14-H ) :   0.8362 B( 15-O , 16-H ) :   0.8382
B( 15-O , 17-H ) :   0.8140 B( 18-O , 19-H ) :   0.8066 B( 18-O , 20-H ) :   0.8101

MP2 TOTAL ENERGY:     -534.237805253 Eh
FINAL SINGLE POINT ENERGY      -534.237805252772

DIPOLE MOMENT
-------------
                                X             Y             Z
Electronic contribution:      0.25572      -0.05127      -0.21658
Nuclear contribution   :      1.69977       0.19829      -0.91596
                        -----------------------------------------
Total Dipole Moment    :      1.95549       0.14702      -1.13254
                        -----------------------------------------
Magnitude (a.u.)       :      2.26456
Magnitude (Debye)      :      5.75605

Rotational constants in cm-1:     0.039720     0.018690     0.017317
Rotational constants in MHz :  1190.786510   560.307357   519.142753

                             ****ORCA TERMINATED NORMALLY****
TOTAL RUN TIME: 0 days 0 hours 2 minutes 14 seconds 873 msec
