                         Program Version 4.2.0 -  RELEASE  -
|  1> # 12meoh.boyd.etal.mol2,3,5
|  2> ! MP2 def2-TZVP EnGrad TightSCF
|  3>
|  4> %pal
|  5>     nprocs 6
|  6> end
|  7>
|  8> %maxcore 8000
|  9>
| 10> %scf
| 11>     ConvForced true
| 12> end
| 13>
| 14> *xyz 0 1
| 15> O  -3.839777402   2.233595098   0.660436763
| 16> H  -2.958345897   1.907036203   0.973588449
| 17> C  -3.600368059   3.168790682  -0.390480452
| 18> H  -4.551709193   3.344148967  -0.901254863
| 19> H  -2.868237594   2.789240199  -1.113617525
| 20> H  -3.243594915   4.128998607   0.009549480
| 21> O  -3.821405976  -2.118091637   0.596795346
| 22> H  -4.342989117  -1.344303030   0.251966383
| 23> C  -3.443883586  -1.809641231   1.934889393
| 24> H  -2.831494349  -2.637429600   2.305201764
| 25> H  -4.325601146  -1.719364371   2.585074667
| 26> H  -2.858527126  -0.882644791   1.996110694
| 27> O  -0.662721750   1.449094618  -1.383082065
| 28> H   0.064188300   2.119867608  -1.465650660
| 29> C  -0.353319239   0.341218776  -2.229326771
| 30> H  -1.072358530  -0.454743281  -2.019906495
| 31> H   0.657636746  -0.044472139  -2.042736771
| 32> H  -0.434616607   0.624733901  -3.287793021
| 33> *
| 34>
| 35>                          ****END OF INPUT****

CARTESIAN COORDINATES (ANGSTROEM)
---------------------------------
  O     -3.839777    2.233595    0.660437
  H     -2.958346    1.907036    0.973588
  C     -3.600368    3.168791   -0.390480
  H     -4.551709    3.344149   -0.901255
  H     -2.868238    2.789240   -1.113618
  H     -3.243595    4.128999    0.009549
  O     -3.821406   -2.118092    0.596795
  H     -4.342989   -1.344303    0.251966
  C     -3.443884   -1.809641    1.934889
  H     -2.831494   -2.637430    2.305202
  H     -4.325601   -1.719364    2.585075
  H     -2.858527   -0.882645    1.996111
  O     -0.662722    1.449095   -1.383082
  H      0.064188    2.119868   -1.465651
  C     -0.353319    0.341219   -2.229327
  H     -1.072359   -0.454743   -2.019906
  H      0.657637   -0.044472   -2.042737
  H     -0.434617    0.624734   -3.287793

 Total Charge           Charge          ....    0
 Multiplicity           Mult            ....    1
 Number of Electrons    NEL             ....   54
 Basis Dimension        Dim             ....  258

ORBITAL ENERGIES
----------------

  NO   OCC          E(Eh)            E(eV)
   0   2.0000     -20.568392      -559.6944
   1   2.0000     -20.549691      -559.1855
   2   2.0000     -20.549690      -559.1855
   3   2.0000     -11.278113      -306.8931
   4   2.0000     -11.264796      -306.5307
   5   2.0000     -11.259865      -306.3965
   6   2.0000      -1.356533       -36.9131
   7   2.0000      -1.338832       -36.4315
   8   2.0000      -1.338536       -36.4234
   9   2.0000      -0.927427       -25.2366
  10   2.0000      -0.912015       -24.8172
  11   2.0000      -0.909508       -24.7490
  12   2.0000      -0.690897       -18.8003
  13   2.0000      -0.673938       -18.3388
  14   2.0000      -0.672272       -18.2934
  15   2.0000      -0.625167       -17.0117
  16   2.0000      -0.610346       -16.6084
  17   2.0000      -0.608435       -16.5564
  18   2.0000      -0.598050       -16.2738
  19   2.0000      -0.582963       -15.8632
  20   2.0000      -0.581404       -15.8208
  21   2.0000      -0.510366       -13.8878
  22   2.0000      -0.493557       -13.4304
  23   2.0000      -0.491806       -13.3827
  24   2.0000      -0.459419       -12.5014
  25   2.0000      -0.441922       -12.0253
  26   2.0000      -0.440012       -11.9733
  27   0.0000       0.114233         3.1084
  28   0.0000       0.137208         3.7336
  29   0.0000       0.161449         4.3933
  30   0.0000       0.177005         4.8166
  31   0.0000       0.184449         5.0191

MULLIKEN ATOMIC CHARGES
-----------------------
   0 O :   -0.513123
   1 H :    0.327605
   2 C :   -0.180552
   3 H :    0.122400
   4 H :    0.131223
   5 H :    0.102586
   6 O :   -0.505348
   7 H :    0.329338
   8 C :   -0.161459
   9 H :    0.125325
  10 H :    0.112281
  11 H :    0.097234
  12 O :   -0.506813
  13 H :    0.325007
  14 C :   -0.175816
  15 H :    0.143510
  16 H :    0.113724
  17 H :    0.112875
Sum of atomic charges:    0.0000000

LOEWDIN ATOMIC CHARGES
----------------------
   0 O :   -0.116154
   1 H :    0.188090
   2 C :   -0.382001
   3 H :    0.106574
   4 H :    0.098062
   5 H :    0.093849
   6 O :   -0.112172
   7 H :    0.193271
   8 C :   -0.380841
   9 H :    0.108558
  10 H :    0.096998
  11 H :    0.092191
  12 O :   -0.110872
  13 H :    0.189442
  14 C :   -0.374052
  15 H :    0.113789
  16 H :    0.098265
  17 H :    0.097004

  Mayer bond orders larger than 0.100000
B(  0-O ,  1-H ) :   0.8386 B(  0-O ,  2-C ) :   0.9170 B(  2-C ,  3-H ) :   0.9383
B(  2-C ,  4-H ) :   0.9320 B(  2-C ,  5-H ) :   0.9407 B(  6-O ,  7-H ) :   0.8368
B(  6-O ,  8-C ) :   0.9279 B(  8-C ,  9-H ) :   0.9383 B(  8-C , 10-H ) :   0.9415
B(  8-C , 11-H ) :   0.9380 B( 12-O , 13-H ) :   0.8392 B( 12-O , 14-C ) :   0.9039
B( 14-C , 15-H ) :   0.9369 B( 14-C , 16-H ) :   0.9359 B( 14-C , 17-H ) :   0.9391

MP2 TOTAL ENERGY:     -346.526356219 Eh
FINAL SINGLE POINT ENERGY      -346.526356219039

DIPOLE MOMENT
-------------
                                X             Y             Z
Electronic contribution:     -1.26617      -0.42030       0.62756
Nuclear contribution   :      2.40480       1.09731      -1.01867
                        -----------------------------------------
Total Dipole Moment    :      1.13863       0.67701      -0.39111
                        -----------------------------------------
Magnitude (a.u.)       :      1.38123
Magnitude (Debye)      :      3.51080

Rotational constants in cm-1:     0.054117     0.033434     0.022144
Rotational constants in MHz :  1622.380474  1002.337155   663.870334

                             ****ORCA TERMINATED NORMALLY****
TOTAL RUN TIME: 0 days 0 hours 1 minutes 10 seconds 492 msec
