                         Program Version 4.2.0 -  RELEASE  -
|  1> # 12h2o.su.etal.mol0,1,2,3,6,7
|  2> ! MP2 def2-TZVP EnGrad TightSCF
|  3>
|  4> %pal
|  5>     nprocs 6
|  6> end
|  7>
|  8> %maxcore 8000
|  9>
| 10> %scf
| 11>     ConvForced true
| 12> end
| 13>
| 14> *xyz 0 1
| 15> O   1.794470000   0.923410000   2.768350000
| 16> H   2.338250000   1.359750000   3.430940000
| 17> H   0.879480000   1.303000000   2.865760000
| 18> O  -1.794470000  -0.923410000   2.768350000
| 19> H  -2.338250000  -1.359750000   3.430940000
| 20> H  -0.879480000  -1.303000000   2.865760000
| 21> O   0.923410000  -1.794470000  -2.768350000
| 22> H   1.359750000  -2.338250000  -3.430940000
| 23> H   1.303000000  -0.879480000  -2.865760000
| 24> O  -1.752130000  -0.741530000  -2.896280000
| 25> H  -2.036450000  -0.920500000  -1.984040000
| 26> H  -0.921210000  -1.242140000  -2.984230000
| 27> O   1.737840000   0.885520000  -0.052730000
| 28> H   2.090180000   1.032320000   0.841890000
| 29> H   0.839590000   1.284090000  -0.017130000
| 30> O  -1.737840000  -0.885520000  -0.052730000
| 31> H  -2.090180000  -1.032320000   0.841890000
| 32> H  -0.839590000  -1.284090000  -0.017130000
| 33> *
| 34>
| 35>                          ****END OF INPUT****

CARTESIAN COORDINATES (ANGSTROEM)
---------------------------------
  O      1.794470    0.923410    2.768350
  H      2.338250    1.359750    3.430940
  H      0.879480    1.303000    2.865760
  O     -1.794470   -0.923410    2.768350
  H     -2.338250   -1.359750    3.430940
  H     -0.879480   -1.303000    2.865760
  O      0.923410   -1.794470   -2.768350
  H      1.359750   -2.338250   -3.430940
  H      1.303000   -0.879480   -2.865760
  O     -1.752130   -0.741530   -2.896280
  H     -2.036450   -0.920500   -1.984040
  H     -0.921210   -1.242140   -2.984230
  O      1.737840    0.885520   -0.052730
  H      2.090180    1.032320    0.841890
  H      0.839590    1.284090   -0.017130
  O     -1.737840   -0.885520   -0.052730
  H     -2.090180   -1.032320    0.841890
  H     -0.839590   -1.284090   -0.017130

 Total Charge           Charge          ....    0
 Multiplicity           Mult            ....    1
 Number of Electrons    NEL             ....   60
 Basis Dimension        Dim             ....  258

ORBITAL ENERGIES
----------------

  NO   OCC          E(Eh)            E(eV)
   0   2.0000     -20.599992      -560.5543
   1   2.0000     -20.599095      -560.5299
   2   2.0000     -20.567774      -559.6776
   3   2.0000     -20.543780      -559.0247
   4   2.0000     -20.535494      -558.7992
   5   2.0000     -20.484941      -557.4236
   6   2.0000      -1.377900       -37.4946
   7   2.0000      -1.376888       -37.4670
   8   2.0000      -1.345468       -36.6120
   9   2.0000      -1.325113       -36.0582
  10   2.0000      -1.314449       -35.7680
  11   2.0000      -1.270312       -34.5669
  12   2.0000      -0.745692       -20.2913
  13   2.0000      -0.742664       -20.2089
  14   2.0000      -0.712335       -19.3836
  15   2.0000      -0.694852       -18.9079
  16   2.0000      -0.684246       -18.6193
  17   2.0000      -0.647274       -17.6132
  18   2.0000      -0.615311       -16.7435
  19   2.0000      -0.613455       -16.6930
  20   2.0000      -0.586770       -15.9668
  21   2.0000      -0.569933       -15.5087
  22   2.0000      -0.565324       -15.3832
  23   2.0000      -0.539178       -14.6718
  24   2.0000      -0.531194       -14.4545
  25   2.0000      -0.518582       -14.1113
  26   2.0000      -0.497762       -13.5448
  27   2.0000      -0.486871       -13.2484
  28   2.0000      -0.480337       -13.0706
  29   2.0000      -0.435202       -11.8425
  30   0.0000       0.084890         2.3100
  31   0.0000       0.119143         3.2420
  32   0.0000       0.130822         3.5598
  33   0.0000       0.164864         4.4862
  34   0.0000       0.174562         4.7501

MULLIKEN ATOMIC CHARGES
-----------------------
   0 O :   -0.699979
   1 H :    0.353005
   2 H :    0.356807
   3 O :   -0.700017
   4 H :    0.354159
   5 H :    0.357932
   6 O :   -0.697154
   7 H :    0.345745
   8 H :    0.369706
   9 O :   -0.731052
  10 H :    0.364797
  11 H :    0.339227
  12 O :   -0.703453
  13 H :    0.364222
  14 H :    0.331164
  15 O :   -0.712781
  16 H :    0.367966
  17 H :    0.339707
Sum of atomic charges:   -0.0000000

LOEWDIN ATOMIC CHARGES
----------------------
   0 O :   -0.312607
   1 H :    0.163841
   2 H :    0.185298
   3 O :   -0.312383
   4 H :    0.164512
   5 H :    0.185720
   6 O :   -0.312243
   7 H :    0.160283
   8 H :    0.191191
   9 O :   -0.359984
  10 H :    0.148612
  11 H :    0.139491
  12 O :   -0.348497
  13 H :    0.148196
  14 H :    0.165724
  15 O :   -0.326179
  16 H :    0.150360
  17 H :    0.168666

  Mayer bond orders larger than 0.100000
B(  0-O ,  1-H ) :   0.8409 B(  0-O ,  2-H ) :   0.8305 B(  3-O ,  4-H ) :   0.8404
B(  3-O ,  5-H ) :   0.8302 B(  6-O ,  7-H ) :   0.8454 B(  6-O ,  8-H ) :   0.8229
B(  9-O , 10-H ) :   0.8252 B(  9-O , 11-H ) :   0.8324 B( 12-O , 13-H ) :   0.8220
B( 12-O , 14-H ) :   0.8504 B( 15-O , 16-H ) :   0.8140 B( 15-O , 17-H ) :   0.8402

MP2 TOTAL ENERGY:     -457.907493064 Eh
FINAL SINGLE POINT ENERGY      -457.907493063724

DIPOLE MOMENT
-------------
                                X             Y             Z
Electronic contribution:     -0.00058       0.01209       0.08611
Nuclear contribution   :      1.13412      -0.25668       2.86726
                        -----------------------------------------
Total Dipole Moment    :      1.13354      -0.24459       2.95337
                        -----------------------------------------
Magnitude (a.u.)       :      3.17288
Magnitude (Debye)      :      8.06481

Rotational constants in cm-1:     0.046851     0.025189     0.017972
Rotational constants in MHz :  1404.552609   755.144586   538.788228

                             ****ORCA TERMINATED NORMALLY****
TOTAL RUN TIME: 0 days 0 hours 0 minutes 50 seconds 485 msec
