                         Program Version 4.2.0 -  RELEASE  -
|  1> # 12meoh.boyd.etal.mol2,10
|  2> ! MP2 def2-TZVP EnGrad TightSCF
|  3>
|  4> %pal
|  5>     nprocs 6
|  6> end
|  7>
|  8> %maxcore 8000
|  9>
| 10> %scf
| 11>     ConvForced true
| 12> end
| 13>
| 14> *xyz 0 1
| 15> O  -3.839777402   2.233595098   0.660436763
| 16> H  -2.958345897   1.907036203   0.973588449
| 17> C  -3.600368059   3.168790682  -0.390480452
| 18> H  -4.551709193   3.344148967  -0.901254863
| 19> H  -2.868237594   2.789240199  -1.113617525
| 20> H  -3.243594915   4.128998607   0.009549480
| 21> O  -5.201143618   0.064582726  -0.172223772
| 22> H  -4.686891530   0.869258890   0.107806143
| 23> C  -6.513192168   0.171391798   0.359883449
| 24> H  -7.049381312  -0.749234190   0.111361174
| 25> H  -7.057741163   1.017801101  -0.081819420
| 26> H  -6.514770575   0.292264928   1.453058834
| 27> *
| 28>
| 29>                          ****END OF INPUT****

CARTESIAN COORDINATES (ANGSTROEM)
---------------------------------
  O     -3.839777    2.233595    0.660437
  H     -2.958346    1.907036    0.973588
  C     -3.600368    3.168791   -0.390480
  H     -4.551709    3.344149   -0.901255
  H     -2.868238    2.789240   -1.113618
  H     -3.243595    4.128999    0.009549
  O     -5.201144    0.064583   -0.172224
  H     -4.686892    0.869259    0.107806
  C     -6.513192    0.171392    0.359883
  H     -7.049381   -0.749234    0.111361
  H     -7.057741    1.017801   -0.081819
  H     -6.514771    0.292265    1.453059

 Total Charge           Charge          ....    0
 Multiplicity           Mult            ....    1
 Number of Electrons    NEL             ....   36
 Basis Dimension        Dim             ....  172

ORBITAL ENERGIES
----------------

  NO   OCC          E(Eh)            E(eV)
   0   2.0000     -20.590735      -560.3024
   1   2.0000     -20.514326      -558.2232
   2   2.0000     -11.291447      -307.2559
   3   2.0000     -11.248074      -306.0757
   4   2.0000      -1.384413       -37.6718
   5   2.0000      -1.311911       -35.6989
   6   2.0000      -0.943139       -25.6641
   7   2.0000      -0.894614       -24.3437
   8   2.0000      -0.716233       -19.4897
   9   2.0000      -0.675141       -18.3715
  10   2.0000      -0.634067       -17.2538
  11   2.0000      -0.610420       -16.6104
  12   2.0000      -0.589818       -16.0498
  13   2.0000      -0.562016       -15.2932
  14   2.0000      -0.530377       -14.4323
  15   2.0000      -0.489827       -13.3289
  16   2.0000      -0.455639       -12.3986
  17   2.0000      -0.416375       -11.3301
  18   0.0000       0.119186         3.2432
  19   0.0000       0.160912         4.3786
  20   0.0000       0.170909         4.6507
  21   0.0000       0.213083         5.7983
  22   0.0000       0.215427         5.8621

MULLIKEN ATOMIC CHARGES
-----------------------
   0 O :   -0.510382
   1 H :    0.343181
   2 C :   -0.193188
   3 H :    0.144013
   4 H :    0.132132
   5 H :    0.125803
   6 O :   -0.534798
   7 H :    0.338404
   8 C :   -0.157142
   9 H :    0.119712
  10 H :    0.091827
  11 H :    0.100438
Sum of atomic charges:    0.0000000

LOEWDIN ATOMIC CHARGES
----------------------
   0 O :   -0.074590
   1 H :    0.197980
   2 C :   -0.370985
   3 H :    0.115691
   4 H :    0.103550
   5 H :    0.104114
   6 O :   -0.124481
   7 H :    0.156321
   8 C :   -0.395726
   9 H :    0.105229
  10 H :    0.090120
  11 H :    0.092777

  Mayer bond orders larger than 0.100000
B(  0-O ,  1-H ) :   0.8287 B(  0-O ,  2-C ) :   0.8707 B(  0-O ,  7-H ) :   0.1026
B(  2-C ,  3-H ) :   0.9396 B(  2-C ,  4-H ) :   0.9410 B(  2-C ,  5-H ) :   0.9326
B(  6-O ,  7-H ) :   0.7897 B(  6-O ,  8-C ) :   0.9415 B(  8-C ,  9-H ) :   0.9415
B(  8-C , 10-H ) :   0.9367 B(  8-C , 11-H ) :   0.9411

MP2 TOTAL ENERGY:     -231.022795506 Eh
FINAL SINGLE POINT ENERGY      -231.022795506395

DIPOLE MOMENT
-------------
                                X             Y             Z
Electronic contribution:      1.46160      -1.11077       0.57531
Nuclear contribution   :     -0.75314       2.14049      -0.41006
                        -----------------------------------------
Total Dipole Moment    :      0.70846       1.02972       0.16525
                        -----------------------------------------
Magnitude (a.u.)       :      1.26077
Magnitude (Debye)      :      3.20462

Rotational constants in cm-1:     0.566220     0.081124     0.080959
Rotational constants in MHz : 16974.861458  2432.030997  2427.086654

                             ****ORCA TERMINATED NORMALLY****
TOTAL RUN TIME: 0 days 0 hours 0 minutes 27 seconds 302 msec
