                         Program Version 4.2.0 -  RELEASE  -
|  1> # 12meoh.boyd.etal.mol1,9
|  2> ! MP2 def2-TZVP EnGrad TightSCF
|  3>
|  4> %pal
|  5>     nprocs 6
|  6> end
|  7>
|  8> %maxcore 8000
|  9>
| 10> %scf
| 11>     ConvForced true
| 12> end
| 13>
| 14> *xyz 0 1
| 15> O   0.666045193  -2.600503172   0.138317521
| 16> H  -0.227115049  -2.712051982  -0.281868004
| 17> C   0.490021232  -1.851247678   1.341189459
| 18> H   1.466500502  -1.466176022   1.645844415
| 19> H   0.097564527  -2.488364683   2.146902740
| 20> H  -0.187588112  -1.000787499   1.200739571
| 21> O   1.390610024   3.194080770  -1.536658882
| 22> H   2.162932299   2.881562730  -0.993525056
| 23> C   1.202977189   4.580367182  -1.302880219
| 24> H   0.374773115   4.915764831  -1.934164643
| 25> H   2.098649340   5.157710875  -1.570472348
| 26> H   0.950320401   4.800436015  -0.254328827
| 27> *
| 28>
| 29>                          ****END OF INPUT****

CARTESIAN COORDINATES (ANGSTROEM)
---------------------------------
  O      0.666045   -2.600503    0.138318
  H     -0.227115   -2.712052   -0.281868
  C      0.490021   -1.851248    1.341189
  H      1.466501   -1.466176    1.645844
  H      0.097565   -2.488365    2.146903
  H     -0.187588   -1.000787    1.200740
  O      1.390610    3.194081   -1.536659
  H      2.162932    2.881563   -0.993525
  C      1.202977    4.580367   -1.302880
  H      0.374773    4.915765   -1.934165
  H      2.098649    5.157711   -1.570472
  H      0.950320    4.800436   -0.254329

 Total Charge           Charge          ....    0
 Multiplicity           Mult            ....    1
 Number of Electrons    NEL             ....   36
 Basis Dimension        Dim             ....  172

ORBITAL ENERGIES
----------------

  NO   OCC          E(Eh)            E(eV)
   0   2.0000     -20.557482      -559.3975
   1   2.0000     -20.555109      -559.3329
   2   2.0000     -11.271760      -306.7202
   3   2.0000     -11.270312      -306.6808
   4   2.0000      -1.348177       -36.6858
   5   2.0000      -1.343257       -36.5519
   6   2.0000      -0.919673       -25.0256
   7   2.0000      -0.918367       -24.9900
   8   2.0000      -0.682867       -18.5817
   9   2.0000      -0.678948       -18.4751
  10   2.0000      -0.617233       -16.7958
  11   2.0000      -0.614868       -16.7314
  12   2.0000      -0.592385       -16.1196
  13   2.0000      -0.588318       -16.0089
  14   2.0000      -0.499383       -13.5889
  15   2.0000      -0.499293       -13.5865
  16   2.0000      -0.448657       -12.2086
  17   2.0000      -0.447458       -12.1760
  18   0.0000       0.130722         3.5571
  19   0.0000       0.140219         3.8155
  20   0.0000       0.172580         4.6961
  21   0.0000       0.180402         4.9090
  22   0.0000       0.227710         6.1963

MULLIKEN ATOMIC CHARGES
-----------------------
   0 O :   -0.496829
   1 H :    0.322778
   2 C :   -0.175908
   3 H :    0.125611
   4 H :    0.109544
   5 H :    0.114766
   6 O :   -0.496824
   7 H :    0.322852
   8 C :   -0.171267
   9 H :    0.128908
  10 H :    0.109169
  11 H :    0.107201
Sum of atomic charges:   -0.0000000

LOEWDIN ATOMIC CHARGES
----------------------
   0 O :   -0.112451
   1 H :    0.190173
   2 C :   -0.378398
   3 H :    0.108232
   4 H :    0.095656
   5 H :    0.096761
   6 O :   -0.105481
   7 H :    0.191073
   8 C :   -0.386073
   9 H :    0.110410
  10 H :    0.095292
  11 H :    0.094804

  Mayer bond orders larger than 0.100000
B(  0-O ,  1-H ) :   0.8426 B(  0-O ,  2-C ) :   0.9286 B(  2-C ,  3-H ) :   0.9384
B(  2-C ,  4-H ) :   0.9376 B(  2-C ,  5-H ) :   0.9411 B(  6-O ,  7-H ) :   0.8411
B(  6-O ,  8-C ) :   0.9283 B(  8-C ,  9-H ) :   0.9375 B(  8-C , 10-H ) :   0.9401
B(  8-C , 11-H ) :   0.9373

MP2 TOTAL ENERGY:     -231.013047510 Eh
FINAL SINGLE POINT ENERGY      -231.013047509528

DIPOLE MOMENT
-------------
                                X             Y             Z
Electronic contribution:      0.48161      -2.68841      -1.88115
Nuclear contribution   :     -0.70819       3.30672       2.52222
                        -----------------------------------------
Total Dipole Moment    :     -0.22658       0.61831       0.64107
                        -----------------------------------------
Magnitude (a.u.)       :      0.91903
Magnitude (Debye)      :      2.33599

Rotational constants in cm-1:     0.576764     0.024057     0.023440
Rotational constants in MHz : 17290.963981   721.199021   702.707360

                             ****ORCA TERMINATED NORMALLY****
TOTAL RUN TIME: 0 days 0 hours 0 minutes 17 seconds 202 msec
