                         Program Version 4.2.0 -  RELEASE  -
|  1> # 12mecn.remya.etal.2.mol2,3,8
|  2> ! MP2 def2-TZVP EnGrad TightSCF
|  3>
|  4> %pal
|  5>     nprocs 6
|  6> end
|  7>
|  8> %maxcore 8000
|  9>
| 10> %scf
| 11>     ConvForced true
| 12> end
| 13>
| 14> *xyz 0 1
| 15> C  -4.219070000  -3.477410000  -1.501740000
| 16> H  -3.251530000  -3.803540000  -1.893830000
| 17> H  -4.452920000  -2.481700000  -1.890840000
| 18> H  -4.992170000  -4.178130000  -1.824640000
| 19> C  -4.154550000  -3.418790000  -0.058340000
| 20> N  -4.091140000  -3.354840000   1.104432000
| 21> C  -5.181310000   2.853865000  -1.626100000
| 22> H  -5.488260000   3.811434000  -2.053310000
| 23> H  -5.857590000   2.068112000  -1.968630000
| 24> H  -4.170750000   2.611402000  -1.966640000
| 25> C  -5.187260000   2.919160000  -0.181450000
| 26> N  -5.181700000   2.970641000   0.983640000
| 27> C   1.912641000  -2.468050000  -1.750510000
| 28> H   2.876947000  -2.793500000  -2.151200000
| 29> H   1.688016000  -1.463720000  -2.122170000
| 30> H   1.123460000  -3.154780000  -2.069590000
| 31> C   1.977850000  -2.444240000  -0.306900000
| 32> N   2.036566000  -2.426130000   0.858249000
| 33> *
| 34>
| 35>                          ****END OF INPUT****

CARTESIAN COORDINATES (ANGSTROEM)
---------------------------------
  C     -4.219070   -3.477410   -1.501740
  H     -3.251530   -3.803540   -1.893830
  H     -4.452920   -2.481700   -1.890840
  H     -4.992170   -4.178130   -1.824640
  C     -4.154550   -3.418790   -0.058340
  N     -4.091140   -3.354840    1.104432
  C     -5.181310    2.853865   -1.626100
  H     -5.488260    3.811434   -2.053310
  H     -5.857590    2.068112   -1.968630
  H     -4.170750    2.611402   -1.966640
  C     -5.187260    2.919160   -0.181450
  N     -5.181700    2.970641    0.983640
  C      1.912641   -2.468050   -1.750510
  H      2.876947   -2.793500   -2.151200
  H      1.688016   -1.463720   -2.122170
  H      1.123460   -3.154780   -2.069590
  C      1.977850   -2.444240   -0.306900
  N      2.036566   -2.426130    0.858249

 Total Charge           Charge          ....    0
 Multiplicity           Mult            ....    1
 Number of Electrons    NEL             ....   66
 Basis Dimension        Dim             ....  333

ORBITAL ENERGIES
----------------

  NO   OCC          E(Eh)            E(eV)
   0   2.0000     -15.574003      -423.7902
   1   2.0000     -15.573720      -423.7825
   2   2.0000     -15.573689      -423.7816
   3   2.0000     -11.289714      -307.2087
   4   2.0000     -11.288568      -307.1776
   5   2.0000     -11.287909      -307.1596
   6   2.0000     -11.279983      -306.9439
   7   2.0000     -11.279878      -306.9411
   8   2.0000     -11.279858      -306.9405
   9   2.0000      -1.214989       -33.0615
  10   2.0000      -1.214885       -33.0587
  11   2.0000      -1.214589       -33.0506
  12   2.0000      -1.047163       -28.4948
  13   2.0000      -1.046423       -28.4746
  14   2.0000      -1.046071       -28.4650
  15   2.0000      -0.703726       -19.1493
  16   2.0000      -0.703317       -19.1382
  17   2.0000      -0.701976       -19.1018
  18   2.0000      -0.636265       -17.3137
  19   2.0000      -0.635942       -17.3049
  20   2.0000      -0.635266       -17.2865
  21   2.0000      -0.635143       -17.2831
  22   2.0000      -0.634038       -17.2531
  23   2.0000      -0.633065       -17.2266
  24   2.0000      -0.555751       -15.1228
  25   2.0000      -0.555573       -15.1179
  26   2.0000      -0.555496       -15.1158
  27   2.0000      -0.458314       -12.4714
  28   2.0000      -0.458248       -12.4696
  29   2.0000      -0.458092       -12.4653
  30   2.0000      -0.457850       -12.4587
  31   2.0000      -0.457830       -12.4582
  32   2.0000      -0.457657       -12.4535
  33   0.0000       0.095659         2.6030
  34   0.0000       0.110014         2.9936
  35   0.0000       0.127506         3.4696
  36   0.0000       0.156651         4.2627
  37   0.0000       0.164361         4.4725

MULLIKEN ATOMIC CHARGES
-----------------------
   0 C :   -0.279682
   1 H :    0.166592
   2 H :    0.166107
   3 H :    0.173786
   4 C :   -0.145920
   5 N :   -0.080876
   6 C :   -0.283228
   7 H :    0.173536
   8 H :    0.168907
   9 H :    0.169591
  10 C :   -0.144776
  11 N :   -0.084035
  12 C :   -0.279838
  13 H :    0.173443
  14 H :    0.170718
  15 H :    0.166077
  16 C :   -0.145624
  17 N :   -0.084778
Sum of atomic charges:    0.0000000

LOEWDIN ATOMIC CHARGES
----------------------
   0 C :   -0.285838
   1 H :    0.150590
   2 H :    0.150774
   3 H :    0.151142
   4 C :   -0.221001
   5 N :    0.054336
   6 C :   -0.285525
   7 H :    0.151570
   8 H :    0.150078
   9 H :    0.151780
  10 C :   -0.219774
  11 N :    0.051870
  12 C :   -0.285409
  13 H :    0.152858
  14 H :    0.151757
  15 H :    0.150295
  16 C :   -0.221081
  17 N :    0.051580

  Mayer bond orders larger than 0.100000
B(  0-C ,  1-H ) :   0.9185 B(  0-C ,  2-H ) :   0.9186 B(  0-C ,  3-H ) :   0.9168
B(  0-C ,  4-C ) :   0.9022 B(  4-C ,  5-N ) :   2.8302 B(  6-C ,  7-H ) :   0.9161
B(  6-C ,  8-H ) :   0.9182 B(  6-C ,  9-H ) :   0.9180 B(  6-C , 10-C ) :   0.9024
B( 10-C , 11-N ) :   2.8327 B( 12-C , 13-H ) :   0.9165 B( 12-C , 14-H ) :   0.9176
B( 12-C , 15-H ) :   0.9183 B( 12-C , 16-C ) :   0.9012 B( 16-C , 17-N ) :   2.8323

MP2 TOTAL ENERGY:     -397.446794692 Eh
FINAL SINGLE POINT ENERGY      -397.446794691920

DIPOLE MOMENT
-------------
                                X             Y             Z
Electronic contribution:      0.25559       0.32617       9.47392
Nuclear contribution   :     -0.39620      -0.48623     -13.93206
                        -----------------------------------------
Total Dipole Moment    :     -0.14062      -0.16006      -4.45814
                        -----------------------------------------
Magnitude (a.u.)       :      4.46322
Magnitude (Debye)      :     11.34462

Rotational constants in cm-1:     0.023836     0.009337     0.007682
Rotational constants in MHz :   714.581814   279.930328   230.301290

                             ****ORCA TERMINATED NORMALLY****
TOTAL RUN TIME: 0 days 0 hours 1 minutes 55 seconds 498 msec
