                         Program Version 3.0.3 - RELEASE   -
|  1> ! B3LYP Def2-SVP def2-SVP/J RIJCOSX TightSCF Grid4 D3BJ OPT
|  2>
|  3> %pal nprocs 12 end
|  4>
|  5> %scf
|  6>         maxiter 400
|  7> end
|  8>
|  9> * xyz  0  1
| 10>   O      1.865332    0.304650    0.353370
| 11>   H      1.429210    0.120898   -0.478655
| 12>   H      2.615764   -0.289395    0.367303
| 13>   O      0.396493   -0.305056   -1.856578
| 14>   H     -0.428039   -0.427013   -1.385934
| 15>   H      0.152690    0.176718   -2.646949
| 16>   O     -0.427903    0.490518    1.809263
| 17>   H      0.428333    0.425280    1.386373
| 18>   H     -0.408533    1.333882    2.261583
| 19>   O     -1.833920   -0.490113   -0.306058
| 20>   H     -2.359926   -1.221201    0.018071
| 21>   H     -1.429502   -0.119168    0.478211
| 22> **                         ****END OF INPUT****
 Total Charge           Charge          ....    0
 Multiplicity           Mult            ....    1
 Number of Electrons    NEL             ....   40
Dispersion correction           -0.007664395
FINAL SINGLE POINT ENERGY      -305.357371308829
Dispersion correction            ...
Dispersion correction           -0.007585877
FINAL SINGLE POINT ENERGY      -305.360632611486
Dispersion correction            ...
Dispersion correction           -0.007710468
FINAL SINGLE POINT ENERGY      -305.361416982427
Dispersion correction            ...
FINAL SINGLE POINT ENERGY      -305.362132514535
FINAL SINGLE POINT ENERGY      -305.362368928452
FINAL SINGLE POINT ENERGY      -305.362850074131
FINAL SINGLE POINT ENERGY      -305.363001371940
FINAL SINGLE POINT ENERGY      -305.363106713724
FINAL SINGLE POINT ENERGY      -305.363211094362
FINAL SINGLE POINT ENERGY      -305.363510664482
FINAL SINGLE POINT ENERGY      -305.365245088197
FINAL SINGLE POINT ENERGY      -305.365259517012
FINAL SINGLE POINT ENERGY      -305.365266266554
FINAL SINGLE POINT ENERGY      -305.365271765056
FINAL SINGLE POINT ENERGY      -305.365279347582
FINAL SINGLE POINT ENERGY      -305.365290264730
FINAL SINGLE POINT ENERGY      -305.365300059986
Dispersion correction            ...
Dispersion correction           -0.008053653
FINAL SINGLE POINT ENERGY      -305.365302967972
Dispersion correction            ...
Dispersion correction           -0.008049982
FINAL SINGLE POINT ENERGY      -305.365302264674
Dispersion correction            ...
                    ***********************HURRAY********************

CARTESIAN COORDINATES (ANGSTROEM)
---------------------------------
  O      1.859564    0.397019    0.274746
  H      1.390834    0.129123   -0.562454
  H      2.440986   -0.352296    0.463463
  O      0.359035   -0.389193   -1.782078
  H     -0.518355   -0.450512   -1.315457
  H      0.218420    0.274116   -2.470899
  O     -0.351615    0.394840    1.792929
  H      0.526501    0.399612    1.323415
  H     -0.481612    1.315755    2.057465
  O     -1.852869   -0.387030   -0.280741
  H     -2.190508   -1.262445   -0.047154
  H     -1.400382   -0.068990    0.546765

 Multiplicity           Mult            ....    1
 Number of Electrons    NEL             ....   40
 Basis Dimension        Dim             ....   96

ORBITAL ENERGIES
----------------

  NO   OCC          E(Eh)            E(eV)
   0   2.0000     -19.119506      -520.2682
   1   2.0000     -19.119229      -520.2607
   2   2.0000     -19.119132      -520.2580
   3   2.0000     -19.118068      -520.2291
   4   2.0000      -0.994254       -27.0550
   5   2.0000      -0.976487       -26.5716
   6   2.0000      -0.976150       -26.5624
   7   2.0000      -0.958812       -26.0906
   8   2.0000      -0.523581       -14.2474
   9   2.0000      -0.512218       -13.9382
  10   2.0000      -0.510877       -13.9017
  11   2.0000      -0.504768       -13.7354
  12   2.0000      -0.415572       -11.3083
  13   2.0000      -0.380048       -10.3416
  14   2.0000      -0.377528       -10.2730
  15   2.0000      -0.344353        -9.3703
  16   2.0000      -0.301866        -8.2142
  17   2.0000      -0.298279        -8.1166
  18   2.0000      -0.297763        -8.1025
  19   2.0000      -0.293326        -7.9818
  20   0.0000       0.040624         1.1054
  21   0.0000       0.077926         2.1205
  22   0.0000       0.078040         2.1236
  23   0.0000       0.097532         2.6540
  24   0.0000       0.216024         5.8783

MULLIKEN ATOMIC CHARGES
-----------------------
   0 O :   -0.312879
   1 H :    0.150162
   2 H :    0.164594
   3 O :   -0.314936
   4 H :    0.148671
   5 H :    0.166009
   6 O :   -0.315081
   7 H :    0.146207
   8 H :    0.166146
   9 O :   -0.314216
  10 H :    0.166120
  11 H :    0.149203
Sum of atomic charges:   -0.0000000

LOEWDIN ATOMIC CHARGES
----------------------
   0 O :   -0.116619
   1 H :    0.035358
   2 H :    0.078633
   3 O :   -0.113540
   4 H :    0.036686
   5 H :    0.079207
   6 O :   -0.116083
   7 H :    0.036458
   8 H :    0.079337
   9 O :   -0.115331
  10 H :    0.079361
  11 H :    0.036532

  Mayer bond orders larger than 0.1
B(  0-O ,  1-H ) :   0.8795 B(  0-O ,  2-H ) :   0.9935 B(  0-O ,  7-H ) :   0.2222
B(  1-H ,  3-O ) :   0.2172 B(  3-O ,  4-H ) :   0.8792 B(  3-O ,  5-H ) :   0.9923
B(  4-H ,  9-O ) :   0.2190 B(  6-O ,  7-H ) :   0.8789 B(  6-O ,  8-H ) :   0.9924
B(  6-O , 11-H ) :   0.2171 B(  9-O , 10-H ) :   0.9925 B(  9-O , 11-H ) :   0.8805

Dispersion correction           -0.008049226
FINAL SINGLE POINT ENERGY      -305.365301746589

DIPOLE MOMENT
-------------
                                X             Y             Z
Electronic contribution:      0.00116       0.00839      -0.00399
Nuclear contribution   :     -0.03525      -0.03905      -0.01213
                        -----------------------------------------
Total Dipole Moment    :     -0.03409      -0.03065      -0.01612
                        -----------------------------------------
Magnitude (a.u.)       :      0.04859
Magnitude (Debye)      :      0.12351

                             ****ORCA TERMINATED NORMALLY****
TOTAL RUN TIME: 0 days 0 hours 23 minutes 0 seconds 992 msec
