                         Program Version 3.0.3 - RELEASE   -
|  1> ! BP86 Def2-SVP TightSCF Opt D3BJ
|  2>
|  3> %pal nprocs 12 end
|  4>
|  5> %scf
|  6>         maxiter 800
|  7> end
|  8>
|  9> * xyz  0  1
| 10>   O      1.865332    0.304650    0.353370
| 11>   H      1.429210    0.120898   -0.478655
| 12>   H      2.615764   -0.289395    0.367303
| 13>   O      0.396493   -0.305056   -1.856578
| 14>   H     -0.428039   -0.427013   -1.385934
| 15>   H      0.152690    0.176718   -2.646949
| 16>   O     -0.427903    0.490518    1.809263
| 17>   H      0.428333    0.425280    1.386373
| 18>   H     -0.408533    1.333882    2.261583
| 19>   O     -1.833920   -0.490113   -0.306058
| 20>   H     -2.359926   -1.221201    0.018071
| 21>   H     -1.429502   -0.119168    0.478211
| 22> **                         ****END OF INPUT****
 Total Charge           Charge          ....    0
 Multiplicity           Mult            ....    1
 Number of Electrons    NEL             ....   40
Dispersion correction           -0.006821935
FINAL SINGLE POINT ENERGY      -305.510888965963
Dispersion correction            ...
Dispersion correction           -0.006751028
FINAL SINGLE POINT ENERGY      -305.517329778967
Dispersion correction            ...
Dispersion correction           -0.006902771
FINAL SINGLE POINT ENERGY      -305.518982063867
Dispersion correction            ...
FINAL SINGLE POINT ENERGY      -305.520138229979
FINAL SINGLE POINT ENERGY      -305.520567192253
FINAL SINGLE POINT ENERGY      -305.520882879123
FINAL SINGLE POINT ENERGY      -305.521355866877
FINAL SINGLE POINT ENERGY      -305.521670396162
FINAL SINGLE POINT ENERGY      -305.522039916707
FINAL SINGLE POINT ENERGY      -305.522438888118
FINAL SINGLE POINT ENERGY      -305.523115281728
FINAL SINGLE POINT ENERGY      -305.523905177534
FINAL SINGLE POINT ENERGY      -305.524649443515
FINAL SINGLE POINT ENERGY      -305.525002234475
FINAL SINGLE POINT ENERGY      -305.525071336703
Dispersion correction            ...
Dispersion correction           -0.007321301
FINAL SINGLE POINT ENERGY      -305.525104986836
Dispersion correction            ...
Dispersion correction           -0.007315495
FINAL SINGLE POINT ENERGY      -305.525109298313
Dispersion correction            ...
                    ***********************HURRAY********************

CARTESIAN COORDINATES (ANGSTROEM)
---------------------------------
  O      1.796407    0.381782    0.275720
  H      1.327718    0.100593   -0.581997
  H      2.388025   -0.369135    0.468304
  O      0.355702   -0.407128   -1.787697
  H     -0.527259   -0.439176   -1.284218
  H      0.219468    0.309069   -2.435643
  O     -0.351462    0.381553    1.801830
  H      0.535858    0.392028    1.304031
  H     -0.509364    1.324103    1.997535
  O     -1.806857   -0.356520   -0.274204
  H     -2.093183   -1.263557   -0.058575
  H     -1.335056   -0.053612    0.574913

 Multiplicity           Mult            ....    1
 Number of Electrons    NEL             ....   40
 Basis Dimension        Dim             ....   96

ORBITAL ENERGIES
----------------

  NO   OCC          E(Eh)            E(eV)
   0   2.0000     -18.766441      -510.6608
   1   2.0000     -18.765995      -510.6487
   2   2.0000     -18.765898      -510.6461
   3   2.0000     -18.765747      -510.6419
   4   2.0000      -0.910384       -24.7728
   5   2.0000      -0.890845       -24.2411
   6   2.0000      -0.890823       -24.2405
   7   2.0000      -0.871629       -23.7182
   8   2.0000      -0.469870       -12.7858
   9   2.0000      -0.457907       -12.4603
  10   2.0000      -0.457708       -12.4549
  11   2.0000      -0.451232       -12.2786
  12   2.0000      -0.369026       -10.0417
  13   2.0000      -0.330561        -8.9950
  14   2.0000      -0.329905        -8.9772
  15   2.0000      -0.294936        -8.0256
  16   2.0000      -0.252266        -6.8645
  17   2.0000      -0.248318        -6.7571
  18   2.0000      -0.248199        -6.7538
  19   2.0000      -0.241988        -6.5848
  20   0.0000       0.021673         0.5897
  21   0.0000       0.057593         1.5672
  22   0.0000       0.058618         1.5951
  23   0.0000       0.077294         2.1033
  24   0.0000       0.190491         5.1835

MULLIKEN ATOMIC CHARGES
-----------------------
   0 O :   -0.317651
   1 H :    0.145840
   2 H :    0.170322
   3 O :   -0.314630
   4 H :    0.145040
   5 H :    0.169644
   6 O :   -0.315349
   7 H :    0.148833
   8 H :    0.169193
   9 O :   -0.316708
  10 H :    0.170479
  11 H :    0.144986
Sum of atomic charges:   -0.0000000

LOEWDIN ATOMIC CHARGES
----------------------
   0 O :   -0.112691
   1 H :    0.031299
   2 H :    0.081649
   3 O :   -0.112548
   4 H :    0.031424
   5 H :    0.081481
   6 O :   -0.112947
   7 H :    0.031771
   8 H :    0.081283
   9 O :   -0.113850
  10 H :    0.081704
  11 H :    0.031423

  Mayer bond orders larger than 0.1
B(  0-O ,  1-H ) :   0.8478 B(  0-O ,  2-H ) :   0.9911 B(  0-O ,  7-H ) :   0.2500
B(  1-H ,  3-O ) :   0.2530 B(  3-O ,  4-H ) :   0.8485 B(  3-O ,  5-H ) :   0.9911
B(  4-H ,  9-O ) :   0.2525 B(  6-O ,  7-H ) :   0.8486 B(  6-O ,  8-H ) :   0.9910
B(  6-O , 11-H ) :   0.2549 B(  9-O , 10-H ) :   0.9910 B(  9-O , 11-H ) :   0.8470

Dispersion correction           -0.007313009
FINAL SINGLE POINT ENERGY      -305.525110425215

DIPOLE MOMENT
-------------
                                X             Y             Z
Electronic contribution:      0.00234      -0.00520       0.00912
Nuclear contribution   :      0.01550       0.00078      -0.03908
                        -----------------------------------------
Total Dipole Moment    :      0.01784      -0.00442      -0.02996
                        -----------------------------------------
Magnitude (a.u.)       :      0.03515
Magnitude (Debye)      :      0.08935

                             ****ORCA TERMINATED NORMALLY****
TOTAL RUN TIME: 0 days 0 hours 14 minutes 34 seconds 699 msec
