                         Program Version 3.0.3 - RELEASE   -
|  1> ! B3LYP Def2-TZVP def2-TZVP/J RIJCOSX TightSCF Grid4 D3BJ
|  2>
|  3> %pal nprocs 12 end
|  4>
|  5> %scf
|  6>         maxiter 400
|  7> end
|  8>
|  9> * xyz  0  1
| 10> O  -0.082089	-0.598644	1.394479
| 11> H  -0.155252	-0.092574	0.565020
| 12> H  -0.411134	0.017300	2.061549
| 13> O  -0.029736	0.525865	-1.254991
| 14> H  -0.257105	-0.314349	-1.678774
| 15> H  0.937436	0.549736	-1.296067
| 16> **                         ****END OF INPUT****

CARTESIAN COORDINATES (ANGSTROEM)
---------------------------------
  O     -0.082089   -0.598644    1.394479
  H     -0.155252   -0.092574    0.565020
  H     -0.411134    0.017300    2.061549
  O     -0.029736    0.525865   -1.254991
  H     -0.257105   -0.314349   -1.678774
  H      0.937436    0.549736   -1.296067

 Total Charge           Charge          ....    0
 Multiplicity           Mult            ....    1
 Number of Electrons    NEL             ....   20
 Basis Dimension        Dim             ....   86

ORBITAL ENERGIES
----------------

  NO   OCC          E(Eh)            E(eV)
   0   2.0000     -19.156466      -521.2740
   1   2.0000     -19.097910      -519.6806
   2   2.0000      -1.040554       -28.3149
   3   2.0000      -0.983292       -26.7567
   4   2.0000      -0.555239       -15.1088
   5   2.0000      -0.505119       -13.7450
   6   2.0000      -0.421797       -11.4777
   7   2.0000      -0.372065       -10.1244
   8   2.0000      -0.338211        -9.2032
   9   2.0000      -0.290357        -7.9010
  10   0.0000      -0.000961        -0.0262
  11   0.0000       0.057197         1.5564
  12   0.0000       0.078318         2.1311
  13   0.0000       0.181510         4.9391
  14   0.0000       0.323675         8.8076

MULLIKEN ATOMIC CHARGES
-----------------------
   0 O :   -0.661073
   1 H :    0.317319
   2 H :    0.306446
   3 O :   -0.635008
   4 H :    0.337329
   5 H :    0.334987
Sum of atomic charges:   -0.0000000

LOEWDIN ATOMIC CHARGES
----------------------
   0 O :   -0.340177
   1 H :    0.135810
   2 H :    0.151619
   3 O :   -0.279365
   4 H :    0.166752
   5 H :    0.165361

  Mayer bond orders larger than 0.1
B(  0-O ,  1-H ) :   0.8657 B(  0-O ,  2-H ) :   0.9157 B(  3-O ,  4-H ) :   0.8939
B(  3-O ,  5-H ) :   0.8944

Dispersion correction           -0.002254021
FINAL SINGLE POINT ENERGY      -152.862425592678

DIPOLE MOMENT
-------------
                                X             Y             Z
Electronic contribution:     -0.03550       0.02349      -0.12888
Nuclear contribution   :      0.28100       0.25443      -0.52210
                        -----------------------------------------
Total Dipole Moment    :      0.24550       0.27792      -0.65097
                        -----------------------------------------
Magnitude (a.u.)       :      0.74918
Magnitude (Debye)      :      1.90427

                             ****ORCA TERMINATED NORMALLY****
TOTAL RUN TIME: 0 days 0 hours 0 minutes 48 seconds 582 msec
