                         Program Version 3.0.3 - RELEASE   -
|  1> ! wB97X-D3 Def2-TZVP def2-TZVP/J RIJCOSX TightSCF Grid4
|  2>
|  3> %pal nprocs 12 end
|  4>
|  5> %scf
|  6>         maxiter 400
|  7> end
|  8>
|  9> * xyz  0  1
| 10> O  -0.082089	-0.598644	1.394479
| 11> H  -0.155252	-0.092574	0.565020
| 12> H  -0.411134	0.017300	2.061549
| 13> O  -0.029736	0.525865	-1.254991
| 14> H  -0.257105	-0.314349	-1.678774
| 15> H  0.937436	0.549736	-1.296067
| 16> **                         ****END OF INPUT****

CARTESIAN COORDINATES (ANGSTROEM)
---------------------------------
  O     -0.082089   -0.598644    1.394479
  H     -0.155252   -0.092574    0.565020
  H     -0.411134    0.017300    2.061549
  O     -0.029736    0.525865   -1.254991
  H     -0.257105   -0.314349   -1.678774
  H      0.937436    0.549736   -1.296067

 Total Charge           Charge          ....    0
 Multiplicity           Mult            ....    1
 Number of Electrons    NEL             ....   20
 Basis Dimension        Dim             ....   86

ORBITAL ENERGIES
----------------

  NO   OCC          E(Eh)            E(eV)
   0   2.0000     -19.262253      -524.1526
   1   2.0000     -19.205084      -522.5969
   2   2.0000      -1.154561       -31.4172
   3   2.0000      -1.098299       -29.8862
   4   2.0000      -0.655286       -17.8312
   5   2.0000      -0.607066       -16.5191
   6   2.0000      -0.522110       -14.2073
   7   2.0000      -0.473757       -12.8916
   8   2.0000      -0.436582       -11.8800
   9   2.0000      -0.391174       -10.6444
  10   0.0000       0.090391         2.4597
  11   0.0000       0.147731         4.0200
  12   0.0000       0.167949         4.5701
  13   0.0000       0.270553         7.3621
  14   0.0000       0.419072        11.4035

MULLIKEN ATOMIC CHARGES
-----------------------
   0 O :   -0.672440
   1 H :    0.318195
   2 H :    0.319880
   3 O :   -0.663180
   4 H :    0.349802
   5 H :    0.347742
Sum of atomic charges:    0.0000000

LOEWDIN ATOMIC CHARGES
----------------------
   0 O :   -0.339047
   1 H :    0.135270
   2 H :    0.152736
   3 O :   -0.282537
   4 H :    0.167409
   5 H :    0.166170

  Mayer bond orders larger than 0.1
B(  0-O ,  1-H ) :   0.8699 B(  0-O ,  2-H ) :   0.9100 B(  3-O ,  4-H ) :   0.8874
B(  3-O ,  5-H ) :   0.8880

Dispersion correction           -0.000543777
FINAL SINGLE POINT ENERGY      -152.886483215167

DIPOLE MOMENT
-------------
                                X             Y             Z
Electronic contribution:     -0.03249       0.02223      -0.12296
Nuclear contribution   :      0.28100       0.25443      -0.52210
                        -----------------------------------------
Total Dipole Moment    :      0.24851       0.27666      -0.64505
                        -----------------------------------------
Magnitude (a.u.)       :      0.74457
Magnitude (Debye)      :      1.89255

                             ****ORCA TERMINATED NORMALLY****
TOTAL RUN TIME: 0 days 0 hours 0 minutes 49 seconds 237 msec
