                         Program Version 4.2.0 -  RELEASE  -
|  1> # 12h2o.su.etal.mol0,3,4,5,6,7
|  2> ! MP2 def2-TZVP EnGrad TightSCF
|  3>
|  4> %pal
|  5>     nprocs 6
|  6> end
|  7>
|  8> %maxcore 8000
|  9>
| 10> %scf
| 11>     ConvForced true
| 12> end
| 13>
| 14> *xyz 0 1
| 15> O   1.794470000   0.923410000   2.768350000
| 16> H   2.338250000   1.359750000   3.430940000
| 17> H   0.879480000   1.303000000   2.865760000
| 18> O  -1.752130000  -0.741530000  -2.896280000
| 19> H  -2.036450000  -0.920500000  -1.984040000
| 20> H  -0.921210000  -1.242140000  -2.984230000
| 21> O  -0.885520000   1.737840000   0.052730000
| 22> H  -1.032320000   2.090180000  -0.841890000
| 23> H  -1.284090000   0.839590000   0.017130000
| 24> O   0.885520000  -1.737840000   0.052730000
| 25> H   1.284090000  -0.839590000   0.017130000
| 26> H   1.032320000  -2.090180000  -0.841890000
| 27> O   1.737840000   0.885520000  -0.052730000
| 28> H   2.090180000   1.032320000   0.841890000
| 29> H   0.839590000   1.284090000  -0.017130000
| 30> O  -1.737840000  -0.885520000  -0.052730000
| 31> H  -2.090180000  -1.032320000   0.841890000
| 32> H  -0.839590000  -1.284090000  -0.017130000
| 33> *
| 34>
| 35>                          ****END OF INPUT****

CARTESIAN COORDINATES (ANGSTROEM)
---------------------------------
  O      1.794470    0.923410    2.768350
  H      2.338250    1.359750    3.430940
  H      0.879480    1.303000    2.865760
  O     -1.752130   -0.741530   -2.896280
  H     -2.036450   -0.920500   -1.984040
  H     -0.921210   -1.242140   -2.984230
  O     -0.885520    1.737840    0.052730
  H     -1.032320    2.090180   -0.841890
  H     -1.284090    0.839590    0.017130
  O      0.885520   -1.737840    0.052730
  H      1.284090   -0.839590    0.017130
  H      1.032320   -2.090180   -0.841890
  O      1.737840    0.885520   -0.052730
  H      2.090180    1.032320    0.841890
  H      0.839590    1.284090   -0.017130
  O     -1.737840   -0.885520   -0.052730
  H     -2.090180   -1.032320    0.841890
  H     -0.839590   -1.284090   -0.017130

 Total Charge           Charge          ....    0
 Multiplicity           Mult            ....    1
 Number of Electrons    NEL             ....   60
 Basis Dimension        Dim             ....  258

ORBITAL ENERGIES
----------------

  NO   OCC          E(Eh)            E(eV)
   0   2.0000     -20.590610      -560.2990
   1   2.0000     -20.583798      -560.1136
   2   2.0000     -20.563888      -559.5719
   3   2.0000     -20.563690      -559.5664
   4   2.0000     -20.542510      -558.9901
   5   2.0000     -20.537220      -558.8462
   6   2.0000      -1.377364       -37.4800
   7   2.0000      -1.368762       -37.2459
   8   2.0000      -1.349209       -36.7138
   9   2.0000      -1.348877       -36.7048
  10   2.0000      -1.324141       -36.0317
  11   2.0000      -1.320385       -35.9295
  12   2.0000      -0.738016       -20.0824
  13   2.0000      -0.735467       -20.0131
  14   2.0000      -0.718828       -19.5603
  15   2.0000      -0.713369       -19.4118
  16   2.0000      -0.699546       -19.0356
  17   2.0000      -0.694030       -18.8855
  18   2.0000      -0.630440       -17.1551
  19   2.0000      -0.612984       -16.6801
  20   2.0000      -0.595782       -16.2121
  21   2.0000      -0.593007       -16.1365
  22   2.0000      -0.567424       -15.4404
  23   2.0000      -0.557662       -15.1748
  24   2.0000      -0.529122       -14.3981
  25   2.0000      -0.525353       -14.2956
  26   2.0000      -0.510176       -13.8826
  27   2.0000      -0.504843       -13.7375
  28   2.0000      -0.488695       -13.2981
  29   2.0000      -0.485991       -13.2245
  30   0.0000       0.097184         2.6445
  31   0.0000       0.118433         3.2227
  32   0.0000       0.142902         3.8886
  33   0.0000       0.164502         4.4763
  34   0.0000       0.190003         5.1703

MULLIKEN ATOMIC CHARGES
-----------------------
   0 O :   -0.698040
   1 H :    0.351876
   2 H :    0.359857
   3 O :   -0.692272
   4 H :    0.371650
   5 H :    0.317803
   6 O :   -0.724520
   7 H :    0.359010
   8 H :    0.368577
   9 O :   -0.714437
  10 H :    0.380484
  11 H :    0.339186
  12 O :   -0.734381
  13 H :    0.375366
  14 H :    0.354601
  15 O :   -0.739851
  16 H :    0.358723
  17 H :    0.366368
Sum of atomic charges:    0.0000000

LOEWDIN ATOMIC CHARGES
----------------------
   0 O :   -0.311149
   1 H :    0.163378
   2 H :    0.187268
   3 O :   -0.337445
   4 H :    0.151364
   5 H :    0.156890
   6 O :   -0.314061
   7 H :    0.171157
   8 H :    0.143483
   9 O :   -0.308277
  10 H :    0.147592
  11 H :    0.161472
  12 O :   -0.318160
  13 H :    0.149348
  14 H :    0.138772
  15 O :   -0.297705
  16 H :    0.170909
  17 H :    0.145165

  Mayer bond orders larger than 0.100000
B(  0-O ,  1-H ) :   0.8421 B(  0-O ,  2-H ) :   0.8305 B(  3-O ,  4-H ) :   0.8197
B(  3-O ,  5-H ) :   0.8628 B(  6-O ,  7-H ) :   0.8365 B(  6-O ,  8-H ) :   0.7755
B(  6-O , 14-H ) :   0.1023 B(  9-O , 10-H ) :   0.7493 B(  9-O , 11-H ) :   0.8474
B(  9-O , 17-H ) :   0.1242 B( 10-H , 12-O ) :   0.1199 B( 12-O , 13-H ) :   0.8091
B( 12-O , 14-H ) :   0.7791 B( 15-O , 16-H ) :   0.8352 B( 15-O , 17-H ) :   0.7453

MP2 TOTAL ENERGY:     -457.937721732 Eh
FINAL SINGLE POINT ENERGY      -457.937721732336

DIPOLE MOMENT
-------------
                                X             Y             Z
Electronic contribution:      0.04836       0.04483       0.14705
Nuclear contribution   :      0.14599       0.11349       1.31870
                        -----------------------------------------
Total Dipole Moment    :      0.19435       0.15832       1.46575
                        -----------------------------------------
Magnitude (a.u.)       :      1.48703
Magnitude (Debye)      :      3.77974

Rotational constants in cm-1:     0.075276     0.029610     0.027065
Rotational constants in MHz :  2256.717880   887.682263   811.377094

                             ****ORCA TERMINATED NORMALLY****
TOTAL RUN TIME: 0 days 0 hours 1 minutes 14 seconds 121 msec
