                         Program Version 4.2.0 -  RELEASE  -
|  1> # 12meoh.boyd.etal.mol1,7
|  2> ! MP2 def2-TZVP EnGrad TightSCF
|  3>
|  4> %pal
|  5>     nprocs 6
|  6> end
|  7>
|  8> %maxcore 8000
|  9>
| 10> %scf
| 11>     ConvForced true
| 12> end
| 13>
| 14> *xyz 0 1
| 15> O   0.666045193  -2.600503172   0.138317521
| 16> H  -0.227115049  -2.712051982  -0.281868004
| 17> C   0.490021232  -1.851247678   1.341189459
| 18> H   1.466500502  -1.466176022   1.645844415
| 19> H   0.097564527  -2.488364683   2.146902740
| 20> H  -0.187588112  -1.000787499   1.200739571
| 21> O   4.310535586  -1.588322800   0.656128299
| 22> H   3.804372199  -1.630404735  -0.196849819
| 23> C   4.312298137  -2.894980854   1.222112691
| 24> H   4.713177833  -2.819907076   2.237066773
| 25> H   4.957796734  -3.574699304   0.648211180
| 26> H   3.302735989  -3.324433205   1.269756773
| 27> *
| 28>
| 29>                          ****END OF INPUT****

CARTESIAN COORDINATES (ANGSTROEM)
---------------------------------
  O      0.666045   -2.600503    0.138318
  H     -0.227115   -2.712052   -0.281868
  C      0.490021   -1.851248    1.341189
  H      1.466501   -1.466176    1.645844
  H      0.097565   -2.488365    2.146903
  H     -0.187588   -1.000787    1.200740
  O      4.310536   -1.588323    0.656128
  H      3.804372   -1.630405   -0.196850
  C      4.312298   -2.894981    1.222113
  H      4.713178   -2.819907    2.237067
  H      4.957797   -3.574699    0.648211
  H      3.302736   -3.324433    1.269757

 Total Charge           Charge          ....    0
 Multiplicity           Mult            ....    1
 Number of Electrons    NEL             ....   36
 Basis Dimension        Dim             ....  172

ORBITAL ENERGIES
----------------

  NO   OCC          E(Eh)            E(eV)
   0   2.0000     -20.563799      -559.5694
   1   2.0000     -20.549025      -559.1674
   2   2.0000     -11.273484      -306.7671
   3   2.0000     -11.261998      -306.4545
   4   2.0000      -1.351706       -36.7818
   5   2.0000      -1.338523       -36.4231
   6   2.0000      -0.923020       -25.1167
   7   2.0000      -0.910540       -24.7771
   8   2.0000      -0.687605       -18.7107
   9   2.0000      -0.672113       -18.2891
  10   2.0000      -0.620614       -16.8878
  11   2.0000      -0.610440       -16.6109
  12   2.0000      -0.591706       -16.1011
  13   2.0000      -0.582439       -15.8490
  14   2.0000      -0.505609       -13.7583
  15   2.0000      -0.492152       -13.3921
  16   2.0000      -0.454654       -12.3718
  17   2.0000      -0.440377       -11.9833
  18   0.0000       0.125780         3.4227
  19   0.0000       0.162211         4.4140
  20   0.0000       0.172862         4.7038
  21   0.0000       0.187446         5.1007
  22   0.0000       0.222565         6.0563

MULLIKEN ATOMIC CHARGES
-----------------------
   0 O :   -0.507349
   1 H :    0.323899
   2 C :   -0.197874
   3 H :    0.148908
   4 H :    0.112960
   5 H :    0.117338
   6 O :   -0.508957
   7 H :    0.330395
   8 C :   -0.183487
   9 H :    0.124256
  10 H :    0.112259
  11 H :    0.127650
Sum of atomic charges:   -0.0000000

LOEWDIN ATOMIC CHARGES
----------------------
   0 O :   -0.116342
   1 H :    0.190855
   2 C :   -0.381534
   3 H :    0.111500
   4 H :    0.096785
   5 H :    0.097582
   6 O :   -0.110024
   7 H :    0.192272
   8 C :   -0.383416
   9 H :    0.107873
  10 H :    0.095994
  11 H :    0.098455

  Mayer bond orders larger than 0.100000
B(  0-O ,  1-H ) :   0.8415 B(  0-O ,  2-C ) :   0.9096 B(  2-C ,  3-H ) :   0.9332
B(  2-C ,  4-H ) :   0.9386 B(  2-C ,  5-H ) :   0.9392 B(  6-O ,  7-H ) :   0.8376
B(  6-O ,  8-C ) :   0.9121 B(  8-C ,  9-H ) :   0.9386 B(  8-C , 10-H ) :   0.9413
B(  8-C , 11-H ) :   0.9351

MP2 TOTAL ENERGY:     -231.017540556 Eh
FINAL SINGLE POINT ENERGY      -231.017540556283

DIPOLE MOMENT
-------------
                                X             Y             Z
Electronic contribution:      0.40062       0.76791      -2.08395
Nuclear contribution   :     -1.37590      -1.06648       2.00350
                        -----------------------------------------
Total Dipole Moment    :     -0.97528      -0.29856      -0.08045
                        -----------------------------------------
Magnitude (a.u.)       :      1.02313
Magnitude (Debye)      :      2.60058

Rotational constants in cm-1:     0.405429     0.067793     0.066907
Rotational constants in MHz : 12154.456069  2032.375516  2005.821659

                             ****ORCA TERMINATED NORMALLY****
TOTAL RUN TIME: 0 days 0 hours 0 minutes 24 seconds 897 msec
