                         Program Version 4.2.0 -  RELEASE  -
|  1> # 12meoh.boyd.etal.mol1,5
|  2> ! MP2 def2-TZVP EnGrad TightSCF
|  3>
|  4> %pal
|  5>     nprocs 6
|  6> end
|  7>
|  8> %maxcore 8000
|  9>
| 10> %scf
| 11>     ConvForced true
| 12> end
| 13>
| 14> *xyz 0 1
| 15> O   0.666045193  -2.600503172   0.138317521
| 16> H  -0.227115049  -2.712051982  -0.281868004
| 17> C   0.490021232  -1.851247678   1.341189459
| 18> H   1.466500502  -1.466176022   1.645844415
| 19> H   0.097564527  -2.488364683   2.146902740
| 20> H  -0.187588112  -1.000787499   1.200739571
| 21> O  -0.662721750   1.449094618  -1.383082065
| 22> H   0.064188300   2.119867608  -1.465650660
| 23> C  -0.353319239   0.341218776  -2.229326771
| 24> H  -1.072358530  -0.454743281  -2.019906495
| 25> H   0.657636746  -0.044472139  -2.042736771
| 26> H  -0.434616607   0.624733901  -3.287793021
| 27> *
| 28>
| 29>                          ****END OF INPUT****

CARTESIAN COORDINATES (ANGSTROEM)
---------------------------------
  O      0.666045   -2.600503    0.138318
  H     -0.227115   -2.712052   -0.281868
  C      0.490021   -1.851248    1.341189
  H      1.466501   -1.466176    1.645844
  H      0.097565   -2.488365    2.146903
  H     -0.187588   -1.000787    1.200740
  O     -0.662722    1.449095   -1.383082
  H      0.064188    2.119868   -1.465651
  C     -0.353319    0.341219   -2.229327
  H     -1.072359   -0.454743   -2.019906
  H      0.657637   -0.044472   -2.042737
  H     -0.434617    0.624734   -3.287793

 Total Charge           Charge          ....    0
 Multiplicity           Mult            ....    1
 Number of Electrons    NEL             ....   36
 Basis Dimension        Dim             ....  172

ORBITAL ENERGIES
----------------

  NO   OCC          E(Eh)            E(eV)
   0   2.0000     -20.558459      -559.4241
   1   2.0000     -20.556953      -559.3831
   2   2.0000     -11.272610      -306.7433
   3   2.0000     -11.268865      -306.6414
   4   2.0000      -1.346695       -36.6454
   5   2.0000      -1.344737       -36.5922
   6   2.0000      -0.921034       -25.0626
   7   2.0000      -0.917639       -24.9702
   8   2.0000      -0.682000       -18.5582
   9   2.0000      -0.679606       -18.4930
  10   2.0000      -0.619682       -16.8624
  11   2.0000      -0.612358       -16.6631
  12   2.0000      -0.592281       -16.1168
  13   2.0000      -0.588756       -16.0209
  14   2.0000      -0.502220       -13.6661
  15   2.0000      -0.499080       -13.5807
  16   2.0000      -0.452220       -12.3055
  17   2.0000      -0.446173       -12.1410
  18   0.0000       0.121165         3.2971
  19   0.0000       0.143372         3.9014
  20   0.0000       0.174604         4.7512
  21   0.0000       0.196368         5.3434
  22   0.0000       0.216348         5.8871

MULLIKEN ATOMIC CHARGES
-----------------------
   0 O :   -0.500161
   1 H :    0.320950
   2 C :   -0.186692
   3 H :    0.125969
   4 H :    0.113829
   5 H :    0.129416
   6 O :   -0.504487
   7 H :    0.323364
   8 C :   -0.178060
   9 H :    0.111223
  10 H :    0.130205
  11 H :    0.114445
Sum of atomic charges:    0.0000000

LOEWDIN ATOMIC CHARGES
----------------------
   0 O :   -0.111512
   1 H :    0.188034
   2 C :   -0.378582
   3 H :    0.108758
   4 H :    0.096494
   5 H :    0.099667
   6 O :   -0.113984
   7 H :    0.189568
   8 C :   -0.379960
   9 H :    0.105035
  10 H :    0.099975
  11 H :    0.096507

  Mayer bond orders larger than 0.100000
B(  0-O ,  1-H ) :   0.8434 B(  0-O ,  2-C ) :   0.9152 B(  2-C ,  3-H ) :   0.9389
B(  2-C ,  4-H ) :   0.9386 B(  2-C ,  5-H ) :   0.9381 B(  6-O ,  7-H ) :   0.8417
B(  6-O ,  8-C ) :   0.9142 B(  8-C ,  9-H ) :   0.9406 B(  8-C , 10-H ) :   0.9392
B(  8-C , 11-H ) :   0.9356

MP2 TOTAL ENERGY:     -231.015074811 Eh
FINAL SINGLE POINT ENERGY      -231.015074810898

DIPOLE MOMENT
-------------
                                X             Y             Z
Electronic contribution:     -0.11946       0.38718      -0.37633
Nuclear contribution   :      0.09927      -0.16267       0.21322
                        -----------------------------------------
Total Dipole Moment    :     -0.02019       0.22450      -0.16312
                        -----------------------------------------
Magnitude (a.u.)       :      0.27824
Magnitude (Debye)      :      0.70723

Rotational constants in cm-1:     0.412855     0.058385     0.052627
Rotational constants in MHz : 12377.075442  1750.330327  1577.705232

                             ****ORCA TERMINATED NORMALLY****
TOTAL RUN TIME: 0 days 0 hours 0 minutes 23 seconds 138 msec
