                         Program Version 4.2.0 -  RELEASE  -
|  1> # 12mecn.remya.etal.2.mol4,9,11
|  2> ! MP2 def2-TZVP EnGrad TightSCF
|  3>
|  4> %pal
|  5>     nprocs 6
|  6> end
|  7>
|  8> %maxcore 8000
|  9>
| 10> %scf
| 11>     ConvForced true
| 12> end
| 13>
| 14> *xyz 0 1
| 15> C  -1.509690000  -0.693960000  -1.610140000
| 16> H  -1.327010000  -1.692700000  -2.017370000
| 17> H  -0.742170000  -0.000650000  -1.964400000
| 18> H  -2.491920000  -0.334310000  -1.929350000
| 19> C  -1.473570000  -0.748120000  -0.167200000
| 20> N  -1.447490000  -0.793720000   0.998938000
| 21> C   0.923766000   4.000693000  -1.575910000
| 22> H   0.011949000   4.478423000  -1.939550000
| 23> H   0.947903000   2.966558000  -1.929960000
| 24> H   1.805950000   4.519548000  -1.956520000
| 25> C   0.942834000   3.994846000  -0.131200000
| 26> N   0.960035000   3.982544000   1.035639000
| 27> C   4.214163000   3.378139000   1.593627000
| 28> H   3.242643000   3.657109000   2.012358000
| 29> H   4.969258000   4.086643000   1.941290000
| 30> H   4.482966000   2.372549000   1.931698000
| 31> C   4.130759000   3.388436000   0.150192000
| 32> N   4.050180000   3.381449000  -1.013420000
| 33> *
| 34>
| 35>                          ****END OF INPUT****

CARTESIAN COORDINATES (ANGSTROEM)
---------------------------------
  C     -1.509690   -0.693960   -1.610140
  H     -1.327010   -1.692700   -2.017370
  H     -0.742170   -0.000650   -1.964400
  H     -2.491920   -0.334310   -1.929350
  C     -1.473570   -0.748120   -0.167200
  N     -1.447490   -0.793720    0.998938
  C      0.923766    4.000693   -1.575910
  H      0.011949    4.478423   -1.939550
  H      0.947903    2.966558   -1.929960
  H      1.805950    4.519548   -1.956520
  C      0.942834    3.994846   -0.131200
  N      0.960035    3.982544    1.035639
  C      4.214163    3.378139    1.593627
  H      3.242643    3.657109    2.012358
  H      4.969258    4.086643    1.941290
  H      4.482966    2.372549    1.931698
  C      4.130759    3.388436    0.150192
  N      4.050180    3.381449   -1.013420

 Total Charge           Charge          ....    0
 Multiplicity           Mult            ....    1
 Number of Electrons    NEL             ....   66
 Basis Dimension        Dim             ....  333

ORBITAL ENERGIES
----------------

  NO   OCC          E(Eh)            E(eV)
   0   2.0000     -15.572974      -423.7622
   1   2.0000     -15.571333      -423.7175
   2   2.0000     -15.571075      -423.7105
   3   2.0000     -11.286827      -307.1302
   4   2.0000     -11.283412      -307.0372
   5   2.0000     -11.282429      -307.0105
   6   2.0000     -11.279444      -306.9293
   7   2.0000     -11.275331      -306.8174
   8   2.0000     -11.271143      -306.7034
   9   2.0000      -1.218383       -33.1539
  10   2.0000      -1.213718       -33.0269
  11   2.0000      -1.213627       -33.0245
  12   2.0000      -1.045478       -28.4489
  13   2.0000      -1.038189       -28.2506
  14   2.0000      -1.033728       -28.1292
  15   2.0000      -0.700182       -19.0529
  16   2.0000      -0.696323       -18.9479
  17   2.0000      -0.691569       -18.8185
  18   2.0000      -0.634892       -17.2763
  19   2.0000      -0.633330       -17.2338
  20   2.0000      -0.632642       -17.2151
  21   2.0000      -0.623498       -16.9662
  22   2.0000      -0.620378       -16.8813
  23   2.0000      -0.616162       -16.7666
  24   2.0000      -0.559368       -15.2212
  25   2.0000      -0.555827       -15.1248
  26   2.0000      -0.555016       -15.1027
  27   2.0000      -0.462834       -12.5943
  28   2.0000      -0.458983       -12.4896
  29   2.0000      -0.457642       -12.4531
  30   2.0000      -0.456895       -12.4327
  31   2.0000      -0.456378       -12.4187
  32   2.0000      -0.453411       -12.3379
  33   0.0000       0.099731         2.7138
  34   0.0000       0.133162         3.6235
  35   0.0000       0.144055         3.9199
  36   0.0000       0.163146         4.4394
  37   0.0000       0.169042         4.5999

MULLIKEN ATOMIC CHARGES
-----------------------
   0 C :   -0.276466
   1 H :    0.173777
   2 H :    0.164265
   3 H :    0.172390
   4 C :   -0.144823
   5 N :   -0.089207
   6 C :   -0.268095
   7 H :    0.170962
   8 H :    0.158564
   9 H :    0.193068
  10 C :   -0.110622
  11 N :   -0.143843
  12 C :   -0.286408
  13 H :    0.206971
  14 H :    0.166278
  15 H :    0.167923
  16 C :   -0.109237
  17 N :   -0.145498
Sum of atomic charges:   -0.0000000

LOEWDIN ATOMIC CHARGES
----------------------
   0 C :   -0.284075
   1 H :    0.153055
   2 H :    0.150016
   3 H :    0.152854
   4 C :   -0.220976
   5 N :    0.049101
   6 C :   -0.285213
   7 H :    0.148491
   8 H :    0.152590
   9 H :    0.156800
  10 C :   -0.210254
  11 N :    0.034705
  12 C :   -0.281562
  13 H :    0.157925
  14 H :    0.150025
  15 H :    0.153520
  16 C :   -0.208110
  17 N :    0.031108

  Mayer bond orders larger than 0.100000
B(  0-C ,  1-H ) :   0.9164 B(  0-C ,  2-H ) :   0.9184 B(  0-C ,  3-H ) :   0.9172
B(  0-C ,  4-C ) :   0.9002 B(  4-C ,  5-N ) :   2.8325 B(  6-C ,  7-H ) :   0.9128
B(  6-C ,  8-H ) :   0.9186 B(  6-C ,  9-H ) :   0.9077 B(  6-C , 10-C ) :   0.9074
B( 10-C , 11-N ) :   2.7647 B( 12-C , 13-H ) :   0.9014 B( 12-C , 14-H ) :   0.9162
B( 12-C , 15-H ) :   0.9140 B( 12-C , 16-C ) :   0.9011 B( 16-C , 17-N ) :   2.7866

MP2 TOTAL ENERGY:     -397.458455714 Eh
FINAL SINGLE POINT ENERGY      -397.458455713626

DIPOLE MOMENT
-------------
                                X             Y             Z
Electronic contribution:     -0.06334      -0.08227       3.17167
Nuclear contribution   :      0.09886       0.14939      -4.62561
                        -----------------------------------------
Total Dipole Moment    :      0.03552       0.06712      -1.45394
                        -----------------------------------------
Magnitude (a.u.)       :      1.45592
Magnitude (Debye)      :      3.70065

Rotational constants in cm-1:     0.053600     0.014210     0.013501
Rotational constants in MHz :  1606.890427   425.999985   404.764779

                             ****ORCA TERMINATED NORMALLY****
TOTAL RUN TIME: 0 days 0 hours 3 minutes 3 seconds 710 msec
