                         Program Version 4.2.0 -  RELEASE  -
|  1> # 12h2o.su.etal.mol1,3,5,9,10,11
|  2> ! MP2 def2-TZVP EnGrad TightSCF
|  3>
|  4> %pal
|  5>     nprocs 6
|  6> end
|  7>
|  8> %maxcore 8000
|  9>
| 10> %scf
| 11>     ConvForced true
| 12> end
| 13>
| 14> *xyz 0 1
| 15> O  -1.794470000  -0.923410000   2.768350000
| 16> H  -2.338250000  -1.359750000   3.430940000
| 17> H  -0.879480000  -1.303000000   2.865760000
| 18> O  -1.752130000  -0.741530000  -2.896280000
| 19> H  -2.036450000  -0.920500000  -1.984040000
| 20> H  -0.921210000  -1.242140000  -2.984230000
| 21> O   0.885520000  -1.737840000   0.052730000
| 22> H   1.284090000  -0.839590000   0.017130000
| 23> H   1.032320000  -2.090180000  -0.841890000
| 24> O   0.741530000  -1.752130000   2.896280000
| 25> H   0.920500000  -2.036450000   1.984040000
| 26> H   1.242140000  -0.921210000   2.984230000
| 27> O  -0.923410000   1.794470000  -2.768350000
| 28> H  -1.359750000   2.338250000  -3.430940000
| 29> H  -1.303000000   0.879480000  -2.865760000
| 30> O  -0.741530000   1.752130000   2.896280000
| 31> H  -0.920500000   2.036450000   1.984040000
| 32> H  -1.242140000   0.921210000   2.984230000
| 33> *
| 34>
| 35>                          ****END OF INPUT****

CARTESIAN COORDINATES (ANGSTROEM)
---------------------------------
  O     -1.794470   -0.923410    2.768350
  H     -2.338250   -1.359750    3.430940
  H     -0.879480   -1.303000    2.865760
  O     -1.752130   -0.741530   -2.896280
  H     -2.036450   -0.920500   -1.984040
  H     -0.921210   -1.242140   -2.984230
  O      0.885520   -1.737840    0.052730
  H      1.284090   -0.839590    0.017130
  H      1.032320   -2.090180   -0.841890
  O      0.741530   -1.752130    2.896280
  H      0.920500   -2.036450    1.984040
  H      1.242140   -0.921210    2.984230
  O     -0.923410    1.794470   -2.768350
  H     -1.359750    2.338250   -3.430940
  H     -1.303000    0.879480   -2.865760
  O     -0.741530    1.752130    2.896280
  H     -0.920500    2.036450    1.984040
  H     -1.242140    0.921210    2.984230

 Total Charge           Charge          ....    0
 Multiplicity           Mult            ....    1
 Number of Electrons    NEL             ....   60
 Basis Dimension        Dim             ....  258

ORBITAL ENERGIES
----------------

  NO   OCC          E(Eh)            E(eV)
   0   2.0000     -20.610928      -560.8519
   1   2.0000     -20.605946      -560.7163
   2   2.0000     -20.576539      -559.9161
   3   2.0000     -20.537824      -558.8626
   4   2.0000     -20.525343      -558.5230
   5   2.0000     -20.523277      -558.4668
   6   2.0000      -1.391189       -37.8562
   7   2.0000      -1.389734       -37.8166
   8   2.0000      -1.364727       -37.1361
   9   2.0000      -1.322437       -35.9853
  10   2.0000      -1.307749       -35.5857
  11   2.0000      -1.304466       -35.4963
  12   2.0000      -0.752905       -20.4876
  13   2.0000      -0.748548       -20.3690
  14   2.0000      -0.725217       -19.7342
  15   2.0000      -0.705875       -19.2078
  16   2.0000      -0.699015       -19.0212
  17   2.0000      -0.673572       -18.3288
  18   2.0000      -0.636112       -17.3095
  19   2.0000      -0.625704       -17.0263
  20   2.0000      -0.601877       -16.3779
  21   2.0000      -0.569535       -15.4978
  22   2.0000      -0.566190       -15.4068
  23   2.0000      -0.553922       -15.0730
  24   2.0000      -0.542763       -14.7693
  25   2.0000      -0.522489       -14.2177
  26   2.0000      -0.511295       -13.9130
  27   2.0000      -0.486592       -13.2408
  28   2.0000      -0.475748       -12.9458
  29   2.0000      -0.471085       -12.8189
  30   0.0000       0.069404         1.8886
  31   0.0000       0.120143         3.2692
  32   0.0000       0.141933         3.8622
  33   0.0000       0.160199         4.3592
  34   0.0000       0.175177         4.7668

MULLIKEN ATOMIC CHARGES
-----------------------
   0 O :   -0.740808
   1 H :    0.336434
   2 H :    0.382196
   3 O :   -0.673654
   4 H :    0.368021
   5 H :    0.346641
   6 O :   -0.695771
   7 H :    0.359860
   8 H :    0.347018
   9 O :   -0.699169
  10 H :    0.384794
  11 H :    0.353529
  12 O :   -0.735073
  13 H :    0.329007
  14 H :    0.363543
  15 O :   -0.718728
  16 H :    0.331080
  17 H :    0.361079
Sum of atomic charges:   -0.0000000

LOEWDIN ATOMIC CHARGES
----------------------
   0 O :   -0.341384
   1 H :    0.153334
   2 H :    0.145598
   3 O :   -0.267881
   4 H :    0.178419
   5 H :    0.170363
   6 O :   -0.316356
   7 H :    0.181898
   8 H :    0.168945
   9 O :   -0.274772
  10 H :    0.159185
  11 H :    0.172149
  12 O :   -0.373662
  13 H :    0.150286
  14 H :    0.141045
  15 O :   -0.354104
  16 H :    0.160288
  17 H :    0.146650

  Mayer bond orders larger than 0.100000
B(  0-O ,  1-H ) :   0.8510 B(  0-O ,  2-H ) :   0.7588 B(  3-O ,  4-H ) :   0.8303
B(  3-O ,  5-H ) :   0.8431 B(  6-O ,  7-H ) :   0.8326 B(  6-O ,  8-H ) :   0.8438
B(  9-O , 10-H ) :   0.8048 B(  9-O , 11-H ) :   0.8365 B( 12-O , 13-H ) :   0.8589
B( 12-O , 14-H ) :   0.7898 B( 15-O , 16-H ) :   0.8566 B( 15-O , 17-H ) :   0.8050

MP2 TOTAL ENERGY:     -457.914676759 Eh
FINAL SINGLE POINT ENERGY      -457.914676759168

DIPOLE MOMENT
-------------
                                X             Y             Z
Electronic contribution:      0.06286      -0.42386       0.07894
Nuclear contribution   :      0.53875      -1.09939      -1.46039
                        -----------------------------------------
Total Dipole Moment    :      0.60160      -1.52325      -1.38144
                        -----------------------------------------
Magnitude (a.u.)       :      2.14257
Magnitude (Debye)      :      5.44598

Rotational constants in cm-1:     0.049526     0.020436     0.017229
Rotational constants in MHz :  1484.757705   612.649861   516.508914

                             ****ORCA TERMINATED NORMALLY****
TOTAL RUN TIME: 0 days 0 hours 0 minutes 47 seconds 505 msec
