                         Program Version 4.2.0 -  RELEASE  -
|  1> ! MP2 def2-TZVP EnGrad TightSCF FrozenCore
|  2>
|  3> %pal
|  4>     nprocs 12
|  5> end
|  6>
|  7> %maxcore 8000
|  8>
|  9> %scf
| 10>     ConvForced true
| 11> end
| 12>
| 13> *xyz 0 1
| 14> C    -4.096938    -1.344979     1.233230
| 15> H    -3.494144    -0.672328     1.850494
| 16> H    -3.630781    -2.333212     1.236915
| 17> H    -5.110860    -1.409972     1.636027
| 18> C    -4.131782    -0.825443    -0.130870
| 19> N    -4.150678    -0.406220    -1.214957
| 20> C    -0.808393    -0.760184    -2.095117
| 21> H    -0.369267    -1.527231    -2.738004
| 22> H    -0.159101     0.120469    -2.114224
| 23> H    -1.813250    -0.505264    -2.445856
| 24> C    -0.890090    -1.258929    -0.725989
| 25> N    -0.958433    -1.660266     0.363500
| 26> C     0.808405     0.760191     2.095157
| 27> H     0.369203     1.527204     2.738031
| 28> H     1.813274     0.505349     2.445920
| 29> H     0.159182    -0.120514     2.114251
| 30> C     0.890093     1.258939     0.726031
| 31> N     0.958425     1.660283    -0.363457
| 32> C     2.318880    -2.485548     0.990409
| 33> H     2.948300    -1.840205     1.610573
| 34> H     2.707687    -3.506751     1.020260
| 35> H     1.291136    -2.479171     1.366799
| 36> C     2.326319    -1.988563    -0.382674
| 37> N     2.324481    -1.592054    -1.475382
| 38> C     4.096920     1.344946    -1.233297
| 39> H     3.630172     2.332898    -1.237081
| 40> H     3.494634     0.671939    -1.850671
| 41> H     5.110884     1.410528    -1.635893
| 42> C     4.131785     0.825449     0.130817
| 43> N     4.150691     0.406254     1.214916
| 44> C    -2.318881     2.485577    -0.990382
| 45> H    -2.707600     3.506815    -1.020185
| 46> H    -2.948375     1.840309    -1.610550
| 47> H    -1.291150     2.479126    -1.366804
| 48> C    -2.326318     1.988546     0.382685
| 49> N    -2.324476     1.592003     1.475380
| 50> *
| 51>
| 52>                          ****END OF INPUT****

CARTESIAN COORDINATES (ANGSTROEM)
---------------------------------
  C     -4.096938   -1.344979    1.233230
  H     -3.494144   -0.672328    1.850494
  H     -3.630781   -2.333212    1.236915
  H     -5.110860   -1.409972    1.636027
  C     -4.131782   -0.825443   -0.130870
  N     -4.150678   -0.406220   -1.214957
  C     -0.808393   -0.760184   -2.095117
  H     -0.369267   -1.527231   -2.738004
  H     -0.159101    0.120469   -2.114224
  H     -1.813250   -0.505264   -2.445856
  C     -0.890090   -1.258929   -0.725989
  N     -0.958433   -1.660266    0.363500
  C      0.808405    0.760191    2.095157
  H      0.369203    1.527204    2.738031
  H      1.813274    0.505349    2.445920
  H      0.159182   -0.120514    2.114251
  C      0.890093    1.258939    0.726031
  N      0.958425    1.660283   -0.363457
  C      2.318880   -2.485548    0.990409
  H      2.948300   -1.840205    1.610573
  H      2.707687   -3.506751    1.020260
  H      1.291136   -2.479171    1.366799
  C      2.326319   -1.988563   -0.382674
  N      2.324481   -1.592054   -1.475382
  C      4.096920    1.344946   -1.233297
  H      3.630172    2.332898   -1.237081
  H      3.494634    0.671939   -1.850671
  H      5.110884    1.410528   -1.635893
  C      4.131785    0.825449    0.130817
  N      4.150691    0.406254    1.214916
  C     -2.318881    2.485577   -0.990382
  H     -2.707600    3.506815   -1.020185
  H     -2.948375    1.840309   -1.610550
  H     -1.291150    2.479126   -1.366804
  C     -2.326318    1.988546    0.382685
  N     -2.324476    1.592003    1.475380

 Total Charge           Charge          ....    0
 Multiplicity           Mult            ....    1
 Number of Electrons    NEL             ....  132
 Basis Dimension        Dim             ....  666

ORBITAL ENERGIES
----------------

  NO   OCC          E(Eh)            E(eV)
   0   2.0000     -15.566508      -423.5862
   1   2.0000     -15.566507      -423.5862
   2   2.0000     -15.566277      -423.5799
   3   2.0000     -15.566277      -423.5799
   4   2.0000     -15.565635      -423.5625
   5   2.0000     -15.565634      -423.5624
   6   2.0000     -11.282979      -307.0255
   7   2.0000     -11.282978      -307.0254
   8   2.0000     -11.281390      -306.9822
   9   2.0000     -11.281390      -306.9822
  10   2.0000     -11.280436      -306.9563
  11   2.0000     -11.280435      -306.9563
  12   2.0000     -11.267477      -306.6036
  13   2.0000     -11.267477      -306.6036
  14   2.0000     -11.265221      -306.5423
  15   2.0000     -11.265219      -306.5422
  16   2.0000     -11.261181      -306.4323
  17   2.0000     -11.261181      -306.4323
  18   2.0000      -1.221266       -33.2323
  19   2.0000      -1.217754       -33.1368
  20   2.0000      -1.216726       -33.1088
  21   2.0000      -1.214871       -33.0583
  22   2.0000      -1.213736       -33.0274
  23   2.0000      -1.212340       -32.9895
  24   2.0000      -1.029207       -28.0061
  25   2.0000      -1.027629       -27.9632
  26   2.0000      -1.024389       -27.8750
  27   2.0000      -1.024208       -27.8701
  28   2.0000      -1.021960       -27.8089
  29   2.0000      -1.021265       -27.7900
  30   2.0000      -0.689962       -18.7748
  31   2.0000      -0.687462       -18.7068
  32   2.0000      -0.683726       -18.6051
  33   2.0000      -0.683219       -18.5913
  34   2.0000      -0.681498       -18.5445
  35   2.0000      -0.679248       -18.4833
  36   2.0000      -0.629910       -17.1407
  37   2.0000      -0.628970       -17.1151
  38   2.0000      -0.625970       -17.0335
  39   2.0000      -0.622560       -16.9407
  40   2.0000      -0.617173       -16.7941
  41   2.0000      -0.616897       -16.7866
  42   2.0000      -0.610993       -16.6260
  43   2.0000      -0.608464       -16.5571
  44   2.0000      -0.607552       -16.5323
  45   2.0000      -0.605295       -16.4709
  46   2.0000      -0.602502       -16.3949
  47   2.0000      -0.600149       -16.3309
  48   2.0000      -0.561200       -15.2710
  49   2.0000      -0.556264       -15.1367
  50   2.0000      -0.556008       -15.1298
  51   2.0000      -0.554768       -15.0960
  52   2.0000      -0.553818       -15.0702
  53   2.0000      -0.552688       -15.0394
  54   2.0000      -0.469393       -12.7728
  55   2.0000      -0.466271       -12.6879
  56   2.0000      -0.463457       -12.6113
  57   2.0000      -0.460669       -12.5354
  58   2.0000      -0.459525       -12.5043
  59   2.0000      -0.459519       -12.5041
  60   2.0000      -0.456488       -12.4217
  61   2.0000      -0.456264       -12.4156
  62   2.0000      -0.453822       -12.3491
  63   2.0000      -0.450944       -12.2708
  64   2.0000      -0.450107       -12.2480
  65   2.0000      -0.448055       -12.1922
  66   0.0000       0.130080         3.5397
  67   0.0000       0.144757         3.9390
  68   0.0000       0.150704         4.1009
  69   0.0000       0.153176         4.1681
  70   0.0000       0.156977         4.2716

MULLIKEN ATOMIC CHARGES
-----------------------
   0 C :   -0.270059
   1 H :    0.197235
   2 H :    0.173340
   3 H :    0.168290
   4 C :   -0.097994
   5 N :   -0.171499
   6 C :   -0.282571
   7 H :    0.181360
   8 H :    0.187400
   9 H :    0.194961
  10 C :   -0.061237
  11 N :   -0.219997
  12 C :   -0.282571
  13 H :    0.181363
  14 H :    0.194961
  15 H :    0.187395
  16 C :   -0.061217
  17 N :   -0.220014
  18 C :   -0.298939
  19 H :    0.194444
  20 H :    0.172576
  21 H :    0.188993
  22 C :   -0.091498
  23 N :   -0.164802
  24 C :   -0.270087
  25 H :    0.173363
  26 H :    0.197228
  27 H :    0.168288
  28 C :   -0.097981
  29 N :   -0.171501
  30 C :   -0.298942
  31 H :    0.172576
  32 H :    0.194446
  33 H :    0.188991
  34 C :   -0.091505
  35 N :   -0.164794
Sum of atomic charges:   -0.0000000

LOEWDIN ATOMIC CHARGES
----------------------
   0 C :   -0.283435
   1 H :    0.156586
   2 H :    0.152655
   3 H :    0.147385
   4 C :   -0.201072
   5 N :    0.022393
   6 C :   -0.283970
   7 H :    0.154124
   8 H :    0.153765
   9 H :    0.151007
  10 C :   -0.197195
  11 N :    0.024396
  12 C :   -0.283970
  13 H :    0.154124
  14 H :    0.151008
  15 H :    0.153765
  16 C :   -0.197193
  17 N :    0.024394
  18 C :   -0.283537
  19 H :    0.152814
  20 H :    0.149670
  21 H :    0.152021
  22 C :   -0.202088
  23 N :    0.034482
  24 C :   -0.283436
  25 H :    0.152657
  26 H :    0.156586
  27 H :    0.147382
  28 C :   -0.201072
  29 N :    0.022392
  30 C :   -0.283538
  31 H :    0.149670
  32 H :    0.152814
  33 H :    0.152021
  34 C :   -0.202089
  35 N :    0.034484

  Mayer bond orders larger than 0.100000
B(  0-C ,  1-H ) :   0.9046 B(  0-C ,  2-H ) :   0.9134 B(  0-C ,  3-H ) :   0.9102
B(  0-C ,  4-C ) :   0.9067 B(  4-C ,  5-N ) :   2.7419 B(  6-C ,  7-H ) :   0.9035
B(  6-C ,  8-H ) :   0.9106 B(  6-C ,  9-H ) :   0.9040 B(  6-C , 10-C ) :   0.8985
B( 10-C , 11-N ) :   2.6613 B( 12-C , 13-H ) :   0.9035 B( 12-C , 14-H ) :   0.9040
B( 12-C , 15-H ) :   0.9106 B( 12-C , 16-C ) :   0.8985 B( 16-C , 17-N ) :   2.6613
B( 18-C , 19-H ) :   0.9087 B( 18-C , 20-H ) :   0.9085 B( 18-C , 21-H ) :   0.9103
B( 18-C , 22-C ) :   0.8939 B( 22-C , 23-N ) :   2.7372 B( 24-C , 25-H ) :   0.9134
B( 24-C , 26-H ) :   0.9046 B( 24-C , 27-H ) :   0.9103 B( 24-C , 28-C ) :   0.9067
B( 28-C , 29-N ) :   2.7419 B( 30-C , 31-H ) :   0.9085 B( 30-C , 32-H ) :   0.9087
B( 30-C , 33-H ) :   0.9103 B( 30-C , 34-C ) :   0.8939 B( 34-C , 35-N ) :   2.7372

MP2 TOTAL ENERGY:     -794.958676323 Eh
FINAL SINGLE POINT ENERGY      -794.958676323267

DIPOLE MOMENT
-------------
                                X             Y             Z
Electronic contribution:      0.00003       0.00001       0.00001
Nuclear contribution   :     -0.00006      -0.00001       0.00000
                        -----------------------------------------
Total Dipole Moment    :     -0.00003      -0.00001       0.00001
                        -----------------------------------------
Magnitude (a.u.)       :      0.00003
Magnitude (Debye)      :      0.00008

Rotational constants in cm-1:     0.018245     0.007452     0.006773
Rotational constants in MHz :   546.974996   223.418543   203.059545

                             ****ORCA TERMINATED NORMALLY****
TOTAL RUN TIME: 0 days 0 hours 45 minutes 31 seconds 879 msec
