                         Program Version 4.2.0 -  RELEASE  -
|  1> # 12h2o.su.etal.mol1,2,3,7,9,11
|  2> ! MP2 def2-TZVP EnGrad TightSCF
|  3>
|  4> %pal
|  5>     nprocs 6
|  6> end
|  7>
|  8> %maxcore 8000
|  9>
| 10> %scf
| 11>     ConvForced true
| 12> end
| 13>
| 14> *xyz 0 1
| 15> O  -1.794470000  -0.923410000   2.768350000
| 16> H  -2.338250000  -1.359750000   3.430940000
| 17> H  -0.879480000  -1.303000000   2.865760000
| 18> O   0.923410000  -1.794470000  -2.768350000
| 19> H   1.359750000  -2.338250000  -3.430940000
| 20> H   1.303000000  -0.879480000  -2.865760000
| 21> O  -1.752130000  -0.741530000  -2.896280000
| 22> H  -2.036450000  -0.920500000  -1.984040000
| 23> H  -0.921210000  -1.242140000  -2.984230000
| 24> O  -1.737840000  -0.885520000  -0.052730000
| 25> H  -2.090180000  -1.032320000   0.841890000
| 26> H  -0.839590000  -1.284090000  -0.017130000
| 27> O   0.741530000  -1.752130000   2.896280000
| 28> H   0.920500000  -2.036450000   1.984040000
| 29> H   1.242140000  -0.921210000   2.984230000
| 30> O  -0.741530000   1.752130000   2.896280000
| 31> H  -0.920500000   2.036450000   1.984040000
| 32> H  -1.242140000   0.921210000   2.984230000
| 33> *
| 34>
| 35>                          ****END OF INPUT****

CARTESIAN COORDINATES (ANGSTROEM)
---------------------------------
  O     -1.794470   -0.923410    2.768350
  H     -2.338250   -1.359750    3.430940
  H     -0.879480   -1.303000    2.865760
  O      0.923410   -1.794470   -2.768350
  H      1.359750   -2.338250   -3.430940
  H      1.303000   -0.879480   -2.865760
  O     -1.752130   -0.741530   -2.896280
  H     -2.036450   -0.920500   -1.984040
  H     -0.921210   -1.242140   -2.984230
  O     -1.737840   -0.885520   -0.052730
  H     -2.090180   -1.032320    0.841890
  H     -0.839590   -1.284090   -0.017130
  O      0.741530   -1.752130    2.896280
  H      0.920500   -2.036450    1.984040
  H      1.242140   -0.921210    2.984230
  O     -0.741530    1.752130    2.896280
  H     -0.920500    2.036450    1.984040
  H     -1.242140    0.921210    2.984230

 Total Charge           Charge          ....    0
 Multiplicity           Mult            ....    1
 Number of Electrons    NEL             ....   60
 Basis Dimension        Dim             ....  258

ORBITAL ENERGIES
----------------

  NO   OCC          E(Eh)            E(eV)
   0   2.0000     -20.620307      -561.1071
   1   2.0000     -20.594715      -560.4107
   2   2.0000     -20.577617      -559.9454
   3   2.0000     -20.557684      -559.4030
   4   2.0000     -20.535612      -558.8024
   5   2.0000     -20.498792      -557.8005
   6   2.0000      -1.406505       -38.2730
   7   2.0000      -1.372324       -37.3428
   8   2.0000      -1.364350       -37.1258
   9   2.0000      -1.338266       -36.4161
  10   2.0000      -1.317816       -35.8596
  11   2.0000      -1.284208       -34.9451
  12   2.0000      -0.762416       -20.7464
  13   2.0000      -0.746151       -20.3038
  14   2.0000      -0.739383       -20.1196
  15   2.0000      -0.707992       -19.2654
  16   2.0000      -0.688048       -18.7227
  17   2.0000      -0.662480       -18.0270
  18   2.0000      -0.647564       -17.6211
  19   2.0000      -0.612057       -16.6549
  20   2.0000      -0.607985       -16.5441
  21   2.0000      -0.584185       -15.8965
  22   2.0000      -0.562993       -15.3198
  23   2.0000      -0.550367       -14.9763
  24   2.0000      -0.541642       -14.7388
  25   2.0000      -0.521683       -14.1957
  26   2.0000      -0.514205       -13.9922
  27   2.0000      -0.499792       -13.6000
  28   2.0000      -0.483425       -13.1547
  29   2.0000      -0.448813       -12.2128
  30   0.0000       0.078814         2.1446
  31   0.0000       0.110724         3.0130
  32   0.0000       0.141044         3.8380
  33   0.0000       0.159858         4.3500
  34   0.0000       0.170698         4.6449

MULLIKEN ATOMIC CHARGES
-----------------------
   0 O :   -0.748928
   1 H :    0.353471
   2 H :    0.380903
   3 O :   -0.699585
   4 H :    0.354804
   5 H :    0.361614
   6 O :   -0.727013
   7 H :    0.367637
   8 H :    0.336804
   9 O :   -0.701698
  10 H :    0.374234
  11 H :    0.316026
  12 O :   -0.682059
  13 H :    0.356305
  14 H :    0.376025
  15 O :   -0.716134
  16 H :    0.337347
  17 H :    0.360247
Sum of atomic charges:   -0.0000000

LOEWDIN ATOMIC CHARGES
----------------------
   0 O :   -0.311669
   1 H :    0.160854
   2 H :    0.145513
   3 O :   -0.313958
   4 H :    0.164259
   5 H :    0.188394
   6 O :   -0.357200
   7 H :    0.149626
   8 H :    0.138411
   9 O :   -0.322832
  10 H :    0.151389
  11 H :    0.159423
  12 O :   -0.265521
  13 H :    0.172411
  14 H :    0.183044
  15 O :   -0.350745
  16 H :    0.163101
  17 H :    0.145501

  Mayer bond orders larger than 0.100000
B(  0-O ,  1-H ) :   0.8388 B(  0-O ,  2-H ) :   0.7523 B(  3-O ,  4-H ) :   0.8405
B(  3-O ,  5-H ) :   0.8298 B(  6-O ,  7-H ) :   0.8236 B(  6-O ,  8-H ) :   0.8370
B(  9-O , 10-H ) :   0.8045 B(  9-O , 11-H ) :   0.8554 B( 12-O , 13-H ) :   0.8377
B( 12-O , 14-H ) :   0.8216 B( 15-O , 16-H ) :   0.8522 B( 15-O , 17-H ) :   0.8156

MP2 TOTAL ENERGY:     -457.918169605 Eh
FINAL SINGLE POINT ENERGY      -457.918169604972

DIPOLE MOMENT
-------------
                                X             Y             Z
Electronic contribution:      0.05196      -0.05856       0.34336
Nuclear contribution   :      1.89749      -1.38977       0.08817
                        -----------------------------------------
Total Dipole Moment    :      1.94945      -1.44832       0.43153
                        -----------------------------------------
Magnitude (a.u.)       :      2.46662
Magnitude (Debye)      :      6.26965

Rotational constants in cm-1:     0.060995     0.020622     0.018391
Rotational constants in MHz :  1828.576678   618.218330   551.356590

                             ****ORCA TERMINATED NORMALLY****
TOTAL RUN TIME: 0 days 0 hours 1 minutes 5 seconds 847 msec
