                         Program Version 4.2.0 -  RELEASE  -
|  1> # 12mecn.remya.etal.2.mol0,1,10
|  2> ! MP2 def2-TZVP EnGrad TightSCF
|  3>
|  4> %pal
|  5>     nprocs 6
|  6> end
|  7>
|  8> %maxcore 8000
|  9>
| 10> %scf
| 11>     ConvForced true
| 12> end
| 13>
| 14> *xyz 0 1
| 15> C  -0.869520000  -3.929380000   1.700199000
| 16> H  -0.057420000  -3.268850000   2.015352000
| 17> H  -0.697530000  -4.930670000   2.101524000
| 18> H  -1.821490000  -3.546590000   2.077146000
| 19> C  -0.916080000  -3.969960000   0.256749000
| 20> N  -0.955390000  -3.995980000  -0.909290000
| 21> C  -4.697980000  -0.249690000   1.746215000
| 22> H  -4.927570000   0.755530000   2.111799000
| 23> H  -3.709180000  -0.561560000   2.093253000
| 24> H  -5.432280000  -0.961520000   2.128066000
| 25> C  -4.714100000  -0.247110000   0.301670000
| 26> N  -4.729750000  -0.234960000  -0.865260000
| 27> C   4.602033000   0.321019000  -1.784800000
| 28> H   4.827650000  -0.662160000  -2.207910000
| 29> H   5.320558000   1.057980000  -2.148500000
| 30> H   3.601982000   0.643751000  -2.087520000
| 31> C   4.654967000   0.244048000  -0.343060000
| 32> N   4.691648000   0.166590000   0.820757000
| 33> *
| 34>
| 35>                          ****END OF INPUT****

CARTESIAN COORDINATES (ANGSTROEM)
---------------------------------
  C     -0.869520   -3.929380    1.700199
  H     -0.057420   -3.268850    2.015352
  H     -0.697530   -4.930670    2.101524
  H     -1.821490   -3.546590    2.077146
  C     -0.916080   -3.969960    0.256749
  N     -0.955390   -3.995980   -0.909290
  C     -4.697980   -0.249690    1.746215
  H     -4.927570    0.755530    2.111799
  H     -3.709180   -0.561560    2.093253
  H     -5.432280   -0.961520    2.128066
  C     -4.714100   -0.247110    0.301670
  N     -4.729750   -0.234960   -0.865260
  C      4.602033    0.321019   -1.784800
  H      4.827650   -0.662160   -2.207910
  H      5.320558    1.057980   -2.148500
  H      3.601982    0.643751   -2.087520
  C      4.654967    0.244048   -0.343060
  N      4.691648    0.166590    0.820757

 Total Charge           Charge          ....    0
 Multiplicity           Mult            ....    1
 Number of Electrons    NEL             ....   66
 Basis Dimension        Dim             ....  333

ORBITAL ENERGIES
----------------

  NO   OCC          E(Eh)            E(eV)
   0   2.0000     -15.573642      -423.7804
   1   2.0000     -15.573107      -423.7658
   2   2.0000     -15.573014      -423.7633
   3   2.0000     -11.287834      -307.1576
   4   2.0000     -11.286439      -307.1196
   5   2.0000     -11.283210      -307.0318
   6   2.0000     -11.280611      -306.9610
   7   2.0000     -11.279844      -306.9402
   8   2.0000     -11.279473      -306.9301
   9   2.0000      -1.214689       -33.0534
  10   2.0000      -1.214314       -33.0432
  11   2.0000      -1.213910       -33.0322
  12   2.0000      -1.046474       -28.4760
  13   2.0000      -1.045312       -28.4444
  14   2.0000      -1.042974       -28.3808
  15   2.0000      -0.702187       -19.1075
  16   2.0000      -0.701035       -19.0761
  17   2.0000      -0.698895       -19.0179
  18   2.0000      -0.637048       -17.3350
  19   2.0000      -0.634190       -17.2572
  20   2.0000      -0.633090       -17.2272
  21   2.0000      -0.632773       -17.2186
  22   2.0000      -0.632493       -17.2110
  23   2.0000      -0.628380       -17.0991
  24   2.0000      -0.556419       -15.1409
  25   2.0000      -0.555489       -15.1156
  26   2.0000      -0.555146       -15.1063
  27   2.0000      -0.458000       -12.4628
  28   2.0000      -0.457984       -12.4624
  29   2.0000      -0.457454       -12.4479
  30   2.0000      -0.457426       -12.4472
  31   2.0000      -0.457074       -12.4376
  32   2.0000      -0.456612       -12.4251
  33   0.0000       0.093951         2.5565
  34   0.0000       0.121095         3.2952
  35   0.0000       0.133471         3.6319
  36   0.0000       0.163164         4.4399
  37   0.0000       0.169265         4.6059

MULLIKEN ATOMIC CHARGES
-----------------------
   0 C :   -0.281049
   1 H :    0.178112
   2 H :    0.174268
   3 H :    0.161192
   4 C :   -0.144239
   5 N :   -0.088273
   6 C :   -0.281488
   7 H :    0.175116
   8 H :    0.164100
   9 H :    0.172710
  10 C :   -0.144140
  11 N :   -0.086315
  12 C :   -0.277390
  13 H :    0.173925
  14 H :    0.171265
  15 H :    0.175136
  16 C :   -0.145645
  17 N :   -0.097284
Sum of atomic charges:    0.0000000

LOEWDIN ATOMIC CHARGES
----------------------
   0 C :   -0.284436
   1 H :    0.154106
   2 H :    0.152047
   3 H :    0.149197
   4 C :   -0.220406
   5 N :    0.049502
   6 C :   -0.284977
   7 H :    0.153492
   8 H :    0.149837
   9 H :    0.151255
  10 C :   -0.220791
  11 N :    0.051172
  12 C :   -0.282476
  13 H :    0.153840
  14 H :    0.151441
  15 H :    0.154357
  16 C :   -0.219034
  17 N :    0.041876

  Mayer bond orders larger than 0.100000
B(  0-C ,  1-H ) :   0.9159 B(  0-C ,  2-H ) :   0.9165 B(  0-C ,  3-H ) :   0.9192
B(  0-C ,  4-C ) :   0.9005 B(  4-C ,  5-N ) :   2.8328 B(  6-C ,  7-H ) :   0.9158
B(  6-C ,  8-H ) :   0.9191 B(  6-C ,  9-H ) :   0.9178 B(  6-C , 10-C ) :   0.9004
B( 10-C , 11-N ) :   2.8314 B( 12-C , 13-H ) :   0.9151 B( 12-C , 14-H ) :   0.9170
B( 12-C , 15-H ) :   0.9155 B( 12-C , 16-C ) :   0.9017 B( 16-C , 17-N ) :   2.8402

MP2 TOTAL ENERGY:     -397.449086943 Eh
FINAL SINGLE POINT ENERGY      -397.449086942655

DIPOLE MOMENT
-------------
                                X             Y             Z
Electronic contribution:     -0.01854      -0.25642      -3.20310
Nuclear contribution   :      0.03583       0.37917       4.64975
                        -----------------------------------------
Total Dipole Moment    :      0.01729       0.12275       1.44665
                        -----------------------------------------
Magnitude (a.u.)       :      1.45195
Magnitude (Debye)      :      3.69057

Rotational constants in cm-1:     0.029341     0.008311     0.007356
Rotational constants in MHz :   879.623787   249.144688   220.541556

                             ****ORCA TERMINATED NORMALLY****
TOTAL RUN TIME: 0 days 0 hours 2 minutes 1 seconds 59 msec
