                         Program Version 4.2.0 -  RELEASE  -
|  1> # 12h2o.su.etal.mol0,1,2,4,5,6,9,10
|  2> ! MP2 def2-TZVP EnGrad TightSCF
|  3>
|  4> %pal
|  5>     nprocs 6
|  6> end
|  7>
|  8> %maxcore 8000
|  9>
| 10> %scf
| 11>     ConvForced true
| 12> end
| 13>
| 14> *xyz 0 1
| 15> O   1.794470000   0.923410000   2.768350000
| 16> H   2.338250000   1.359750000   3.430940000
| 17> H   0.879480000   1.303000000   2.865760000
| 18> O  -1.794470000  -0.923410000   2.768350000
| 19> H  -2.338250000  -1.359750000   3.430940000
| 20> H  -0.879480000  -1.303000000   2.865760000
| 21> O   0.923410000  -1.794470000  -2.768350000
| 22> H   1.359750000  -2.338250000  -3.430940000
| 23> H   1.303000000  -0.879480000  -2.865760000
| 24> O  -0.885520000   1.737840000   0.052730000
| 25> H  -1.032320000   2.090180000  -0.841890000
| 26> H  -1.284090000   0.839590000   0.017130000
| 27> O   0.885520000  -1.737840000   0.052730000
| 28> H   1.284090000  -0.839590000   0.017130000
| 29> H   1.032320000  -2.090180000  -0.841890000
| 30> O   1.737840000   0.885520000  -0.052730000
| 31> H   2.090180000   1.032320000   0.841890000
| 32> H   0.839590000   1.284090000  -0.017130000
| 33> O   0.741530000  -1.752130000   2.896280000
| 34> H   0.920500000  -2.036450000   1.984040000
| 35> H   1.242140000  -0.921210000   2.984230000
| 36> O  -0.923410000   1.794470000  -2.768350000
| 37> H  -1.359750000   2.338250000  -3.430940000
| 38> H  -1.303000000   0.879480000  -2.865760000
| 39> *
| 40>
| 41>                          ****END OF INPUT****

CARTESIAN COORDINATES (ANGSTROEM)
---------------------------------
  O      1.794470    0.923410    2.768350
  H      2.338250    1.359750    3.430940
  H      0.879480    1.303000    2.865760
  O     -1.794470   -0.923410    2.768350
  H     -2.338250   -1.359750    3.430940
  H     -0.879480   -1.303000    2.865760
  O      0.923410   -1.794470   -2.768350
  H      1.359750   -2.338250   -3.430940
  H      1.303000   -0.879480   -2.865760
  O     -0.885520    1.737840    0.052730
  H     -1.032320    2.090180   -0.841890
  H     -1.284090    0.839590    0.017130
  O      0.885520   -1.737840    0.052730
  H      1.284090   -0.839590    0.017130
  H      1.032320   -2.090180   -0.841890
  O      1.737840    0.885520   -0.052730
  H      2.090180    1.032320    0.841890
  H      0.839590    1.284090   -0.017130
  O      0.741530   -1.752130    2.896280
  H      0.920500   -2.036450    1.984040
  H      1.242140   -0.921210    2.984230
  O     -0.923410    1.794470   -2.768350
  H     -1.359750    2.338250   -3.430940
  H     -1.303000    0.879480   -2.865760

 Total Charge           Charge          ....    0
 Multiplicity           Mult            ....    1
 Number of Electrons    NEL             ....   80
 Basis Dimension        Dim             ....  344

ORBITAL ENERGIES
----------------

  NO   OCC          E(Eh)            E(eV)
   0   2.0000     -20.600222      -560.5605
   1   2.0000     -20.598122      -560.5034
   2   2.0000     -20.583296      -560.1000
   3   2.0000     -20.557678      -559.4028
   4   2.0000     -20.528091      -558.5978
   5   2.0000     -20.524386      -558.4969
   6   2.0000     -20.508238      -558.0575
   7   2.0000     -20.497239      -557.7582
   8   2.0000      -1.380722       -37.5714
   9   2.0000      -1.376332       -37.4519
  10   2.0000      -1.361176       -37.0395
  11   2.0000      -1.342481       -36.5308
  12   2.0000      -1.319272       -35.8992
  13   2.0000      -1.316202       -35.8157
  14   2.0000      -1.291607       -35.1464
  15   2.0000      -1.278040       -34.7772
  16   2.0000      -0.745940       -20.2981
  17   2.0000      -0.742922       -20.2159
  18   2.0000      -0.727731       -19.8026
  19   2.0000      -0.704727       -19.1766
  20   2.0000      -0.692004       -18.8304
  21   2.0000      -0.686783       -18.6883
  22   2.0000      -0.671868       -18.2825
  23   2.0000      -0.663567       -18.0566
  24   2.0000      -0.623950       -16.9785
  25   2.0000      -0.617021       -16.7900
  26   2.0000      -0.600799       -16.3486
  27   2.0000      -0.587303       -15.9813
  28   2.0000      -0.574459       -15.6318
  29   2.0000      -0.566723       -15.4213
  30   2.0000      -0.545476       -14.8432
  31   2.0000      -0.537023       -14.6131
  32   2.0000      -0.531160       -14.4536
  33   2.0000      -0.520505       -14.1636
  34   2.0000      -0.510116       -13.8810
  35   2.0000      -0.495949       -13.4955
  36   2.0000      -0.473646       -12.8886
  37   2.0000      -0.466184       -12.6855
  38   2.0000      -0.459194       -12.4953
  39   2.0000      -0.447976       -12.1900
  40   0.0000       0.094186         2.5629
  41   0.0000       0.115528         3.1437
  42   0.0000       0.129213         3.5161
  43   0.0000       0.165728         4.5097
  44   0.0000       0.181236         4.9317

MULLIKEN ATOMIC CHARGES
-----------------------
   0 O :   -0.722080
   1 H :    0.360760
   2 H :    0.385035
   3 O :   -0.742852
   4 H :    0.317825
   5 H :    0.371548
   6 O :   -0.702137
   7 H :    0.347904
   8 H :    0.365124
   9 O :   -0.711183
  10 H :    0.375399
  11 H :    0.362219
  12 O :   -0.749443
  13 H :    0.343378
  14 H :    0.362066
  15 O :   -0.731243
  16 H :    0.367412
  17 H :    0.363935
  18 O :   -0.720956
  19 H :    0.387527
  20 H :    0.355007
  21 O :   -0.701258
  22 H :    0.354534
  23 H :    0.361477
Sum of atomic charges:   -0.0000000

LOEWDIN ATOMIC CHARGES
----------------------
   0 O :   -0.288101
   1 H :    0.166349
   2 H :    0.197067
   3 O :   -0.379106
   4 H :    0.145127
   5 H :    0.142345
   6 O :   -0.313625
   7 H :    0.161580
   8 H :    0.187991
   9 O :   -0.299933
  10 H :    0.152107
  11 H :    0.178679
  12 O :   -0.351776
  13 H :    0.136816
  14 H :    0.146423
  15 O :   -0.320697
  16 H :    0.145880
  17 H :    0.141054
  18 O :   -0.291656
  19 H :    0.157630
  20 H :    0.144780
  21 O :   -0.311232
  22 H :    0.164700
  23 H :    0.187598

  Mayer bond orders larger than 0.100000
B(  0-O ,  1-H ) :   0.8341 B(  0-O ,  2-H ) :   0.8087 B(  3-O ,  4-H ) :   0.8640
B(  3-O ,  5-H ) :   0.7636 B(  5-H , 18-O ) :   0.1072 B(  6-O ,  7-H ) :   0.8439
B(  6-O ,  8-H ) :   0.8253 B(  9-O , 10-H ) :   0.8064 B(  9-O , 11-H ) :   0.8258
B( 12-O , 13-H ) :   0.7737 B( 12-O , 14-H ) :   0.8222 B( 13-H , 15-O ) :   0.1086
B( 15-O , 16-H ) :   0.8190 B( 15-O , 17-H ) :   0.7774 B( 18-O , 19-H ) :   0.7929
B( 18-O , 20-H ) :   0.8210 B( 21-O , 22-H ) :   0.8402 B( 21-O , 23-H ) :   0.8277

MP2 TOTAL ENERGY:     -610.576157680 Eh
FINAL SINGLE POINT ENERGY      -610.576157679954

DIPOLE MOMENT
-------------
                                X             Y             Z
Electronic contribution:      0.17205       0.25876      -0.20656
Nuclear contribution   :      0.11126       0.90891      -1.46039
                        -----------------------------------------
Total Dipole Moment    :      0.28331       1.16767      -1.66694
                        -----------------------------------------
Magnitude (a.u.)       :      2.05485
Magnitude (Debye)      :      5.22302

Rotational constants in cm-1:     0.031418     0.018063     0.016102
Rotational constants in MHz :   941.873338   541.522634   482.727726

                             ****ORCA TERMINATED NORMALLY****
TOTAL RUN TIME: 0 days 0 hours 3 minutes 0 seconds 360 msec
