                         Program Version 3.0.3 - RELEASE   -
|  1> ! wB97X-D3 MA-Def2-TZVP def2-TZVP/J RIJCOSX TightSCF Grid4
|  2>
|  3> %pal nprocs 1 end
|  4>
|  5> %scf
|  6>         maxiter 400
|  7> end
|  8>
|  9> %cosmo
| 10>         SMD true
| 11>         solvent "WATER"
| 12> end
| 13>
| 14> * xyz  0  1
| 15> O  0.781428	-0.162418	-0.937504
| 16> H  1.375024	0.613012	-0.870567
| 17> H  0.172553	0.101838	-1.656749
| 18> O  -0.909662	0.134138	1.234022
| 19> H  -0.287464	0.038359	0.462178
| 20> H  -0.985033	-0.789250	1.543099
| 21> **                         ****END OF INPUT****

CARTESIAN COORDINATES (ANGSTROEM)
---------------------------------
  O      0.781428   -0.162418   -0.937504
  H      1.375024    0.613012   -0.870567
  H      0.172553    0.101838   -1.656749
  O     -0.909662    0.134138    1.234022
  H     -0.287464    0.038359    0.462178
  H     -0.985033   -0.789250    1.543099

 Total Charge           Charge          ....    0
 Multiplicity           Mult            ....    1
 Number of Electrons    NEL             ....   20
 Basis Dimension        Dim             ....   94

ORBITAL ENERGIES
----------------

  NO   OCC          E(Eh)            E(eV)
   0   2.0000     -19.250463      -523.8317
   1   2.0000     -19.224487      -523.1249
   2   2.0000      -1.136483       -30.9253
   3   2.0000      -1.106453       -30.1081
   4   2.0000      -0.629084       -17.1182
   5   2.0000      -0.611856       -16.6494
   6   2.0000      -0.521848       -14.2002
   7   2.0000      -0.491063       -13.3625
   8   2.0000      -0.428453       -11.6588
   9   2.0000      -0.413252       -11.2452
  10   0.0000       0.079574         2.1653
  11   0.0000       0.119941         3.2638
  12   0.0000       0.140377         3.8198
  13   0.0000       0.141501         3.8505
  14   0.0000       0.171478         4.6661

MULLIKEN ATOMIC CHARGES
-----------------------
   0 O :   -0.781772
   1 H :    0.411539
   2 H :    0.410924
   3 O :   -0.815906
   4 H :    0.383859
   5 H :    0.391357
Sum of atomic charges:    0.0000000

LOEWDIN ATOMIC CHARGES
----------------------
   0 O :   -0.377507
   1 H :    0.222405
   2 H :    0.222324
   3 O :   -0.465569
   4 H :    0.188973
   5 H :    0.209373

  Mayer bond orders larger than 0.1
B(  0-O ,  1-H ) :   0.8450 B(  0-O ,  2-H ) :   0.8456 B(  3-O ,  4-H ) :   0.8080
B(  3-O ,  5-H ) :   0.8535

Dispersion correction           -0.000541637
FINAL SINGLE POINT ENERGY      -152.910562910087

DIPOLE MOMENT
-------------
                                X             Y             Z
Electronic contribution:      0.15345      -0.02048      -0.20345
Nuclear contribution   :      0.44244       0.01708      -0.92814
                        -----------------------------------------
Total Dipole Moment    :      0.59589      -0.00340      -1.13160
                        -----------------------------------------
Magnitude (a.u.)       :      1.27891
Magnitude (Debye)      :      3.25073

                             ****ORCA TERMINATED NORMALLY****
TOTAL RUN TIME: 0 days 0 hours 0 minutes 20 seconds 347 msec
