                         Program Version 3.0.3 - RELEASE   -
|  1> ! B3LYP Def2-TZVP def2-TZVP/J RIJCOSX TightSCF Grid4 D3BJ
|  2>
|  3> %pal nprocs 12 end
|  4>
|  5> %scf
|  6>         maxiter 400
|  7> end
|  8>
|  9> * xyz  0  1
| 10> O  0.761900	-0.184844	-1.026904
| 11> H  1.377404	0.529775	-0.772623
| 12> H  0.252154	0.214524	-1.757948
| 13> O  -0.968421	0.119482	1.231621
| 14> H  -0.424676	-0.005852	0.419049
| 15> H  -0.851514	-0.737405	1.681283
| 16> **                         ****END OF INPUT****

CARTESIAN COORDINATES (ANGSTROEM)
---------------------------------
  O      0.761900   -0.184844   -1.026904
  H      1.377404    0.529775   -0.772623
  H      0.252154    0.214524   -1.757948
  O     -0.968421    0.119482    1.231621
  H     -0.424676   -0.005852    0.419049
  H     -0.851514   -0.737405    1.681283

 Total Charge           Charge          ....    0
 Multiplicity           Mult            ....    1
 Number of Electrons    NEL             ....   20
 Basis Dimension        Dim             ....   86

ORBITAL ENERGIES
----------------

  NO   OCC          E(Eh)            E(eV)
   0   2.0000     -19.162428      -521.4362
   1   2.0000     -19.094947      -519.5999
   2   2.0000      -1.041946       -28.3528
   3   2.0000      -0.975462       -26.5437
   4   2.0000      -0.554910       -15.0999
   5   2.0000      -0.495225       -13.4758
   6   2.0000      -0.427263       -11.6264
   7   2.0000      -0.372910       -10.1474
   8   2.0000      -0.337682        -9.1888
   9   2.0000      -0.285388        -7.7658
  10   0.0000      -0.005993        -0.1631
  11   0.0000       0.059583         1.6213
  12   0.0000       0.073030         1.9873
  13   0.0000       0.185354         5.0438
  14   0.0000       0.315925         8.5968

MULLIKEN ATOMIC CHARGES
-----------------------
   0 O :   -0.634712
   1 H :    0.336412
   2 H :    0.336745
   3 O :   -0.664004
   4 H :    0.318872
   5 H :    0.306688
Sum of atomic charges:   -0.0000000

LOEWDIN ATOMIC CHARGES
----------------------
   0 O :   -0.284838
   1 H :    0.170839
   2 H :    0.171168
   3 O :   -0.352706
   4 H :    0.139845
   5 H :    0.155693

  Mayer bond orders larger than 0.1
B(  0-O ,  1-H ) :   0.8926 B(  0-O ,  2-H ) :   0.8932 B(  3-O ,  4-H ) :   0.8618
B(  3-O ,  5-H ) :   0.9162

Dispersion correction           -0.002265855
FINAL SINGLE POINT ENERGY      -152.861539269958

DIPOLE MOMENT
-------------
                                X             Y             Z
Electronic contribution:      0.03592      -0.02315      -0.08346
Nuclear contribution   :      0.63793       0.10968      -0.69891
                        -----------------------------------------
Total Dipole Moment    :      0.67385       0.08652      -0.78237
                        -----------------------------------------
Magnitude (a.u.)       :      1.03618
Magnitude (Debye)      :      2.63375

                             ****ORCA TERMINATED NORMALLY****
TOTAL RUN TIME: 0 days 0 hours 0 minutes 48 seconds 744 msec
