                         Program Version 3.0.3 - RELEASE   -
|  1> ! B3LYP Def2-TZVP def2-TZVP/J RIJCOSX TightSCF Grid4 D3BJ COSMO
|  2>
|  3> %pal nprocs 12 end
|  4>
|  5> %scf
|  6>         maxiter 400
|  7> end
|  8>
|  9> %cosmo
| 10>         SMD true
| 11>         solvent "WATER"
| 12> end
| 13>
| 14> * xyz  0  1
| 15> O  0.781428	-0.162418	-0.937504
| 16> H  1.375024	0.613012	-0.870567
| 17> H  0.172553	0.101838	-1.656749
| 18> O  -0.909662	0.134138	1.234022
| 19> H  -0.287464	0.038359	0.462178
| 20> H  -0.985033	-0.789250	1.543099
| 21> **                         ****END OF INPUT****

CARTESIAN COORDINATES (ANGSTROEM)
---------------------------------
  O      0.781428   -0.162418   -0.937504
  H      1.375024    0.613012   -0.870567
  H      0.172553    0.101838   -1.656749
  O     -0.909662    0.134138    1.234022
  H     -0.287464    0.038359    0.462178
  H     -0.985033   -0.789250    1.543099

 Total Charge           Charge          ....    0
 Multiplicity           Mult            ....    1
 Number of Electrons    NEL             ....   20
 Basis Dimension        Dim             ....   86

ORBITAL ENERGIES
----------------

  NO   OCC          E(Eh)            E(eV)
   0   2.0000     -19.140749      -520.8463
   1   2.0000     -19.110212      -520.0153
   2   2.0000      -1.019495       -27.7419
   3   2.0000      -0.987053       -26.8591
   4   2.0000      -0.526503       -14.3269
   5   2.0000      -0.505606       -13.7582
   6   2.0000      -0.417629       -11.3643
   7   2.0000      -0.386420       -10.5150
   8   2.0000      -0.327493        -8.9115
   9   2.0000      -0.308251        -8.3879
  10   0.0000       0.026901         0.7320
  11   0.0000       0.074549         2.0286
  12   0.0000       0.115064         3.1310
  13   0.0000       0.198922         5.4130
  14   0.0000       0.326577         8.8866

MULLIKEN ATOMIC CHARGES
-----------------------
   0 O :   -0.723928
   1 H :    0.390045
   2 H :    0.389221
   3 O :   -0.783406
   4 H :    0.359156
   5 H :    0.368912
Sum of atomic charges:    0.0000000

LOEWDIN ATOMIC CHARGES
----------------------
   0 O :   -0.306604
   1 H :    0.195379
   2 H :    0.194795
   3 O :   -0.409729
   4 H :    0.147042
   5 H :    0.179118

  Mayer bond orders larger than 0.1
B(  0-O ,  1-H ) :   0.8543 B(  0-O ,  2-H ) :   0.8546 B(  0-O ,  4-H ) :   0.1233
B(  3-O ,  4-H ) :   0.8092 B(  3-O ,  5-H ) :   0.8733

Dispersion correction           -0.002318539
FINAL SINGLE POINT ENERGY      -152.884229891570

DIPOLE MOMENT
-------------
                                X             Y             Z
Electronic contribution:      0.16267      -0.01454      -0.21241
Nuclear contribution   :      0.44244       0.01708      -0.92814
                        -----------------------------------------
Total Dipole Moment    :      0.60511       0.00254      -1.14056
                        -----------------------------------------
Magnitude (a.u.)       :      1.29114
Magnitude (Debye)      :      3.28181

                             ****ORCA TERMINATED NORMALLY****
TOTAL RUN TIME: 0 days 0 hours 0 minutes 50 seconds 392 msec
