                         Program Version 3.0.3 - RELEASE   -
|  1> ! B3LYP Def2-TZVP def2-TZVP/J RIJCOSX TightSCF Grid4 D3BJ COSMO
|  2>
|  3> %pal nprocs 12 end
|  4>
|  5> %scf
|  6>         maxiter 400
|  7> end
|  8>
|  9> %cosmo
| 10>         SMD true
| 11>         solvent "WATER"
| 12> end
| 13>
| 14> * xyz  0  1
| 15> O  0.860831	-0.127842	-0.930763
| 16> H  1.296388	0.739539	-0.960785
| 17> H  0.158869	-0.036338	-1.595968
| 18> O  -0.808401	0.114159	1.314382
| 19> H  -0.188220	0.026928	0.557695
| 20> H  -1.172620	-0.780766	1.389917
| 21> **                         ****END OF INPUT****

CARTESIAN COORDINATES (ANGSTROEM)
---------------------------------
  O      0.860831   -0.127842   -0.930763
  H      1.296388    0.739539   -0.960785
  H      0.158869   -0.036338   -1.595968
  O     -0.808401    0.114159    1.314382
  H     -0.188220    0.026928    0.557695
  H     -1.172620   -0.780766    1.389917

 Total Charge           Charge          ....    0
 Multiplicity           Mult            ....    1
 Number of Electrons    NEL             ....   20
 Basis Dimension        Dim             ....   86

ORBITAL ENERGIES
----------------

  NO   OCC          E(Eh)            E(eV)
   0   2.0000     -19.138243      -520.7781
   1   2.0000     -19.111353      -520.0464
   2   2.0000      -1.020836       -27.7784
   3   2.0000      -0.993026       -27.0216
   4   2.0000      -0.528806       -14.3895
   5   2.0000      -0.511296       -13.9131
   6   2.0000      -0.414862       -11.2890
   7   2.0000      -0.389089       -10.5876
   8   2.0000      -0.327989        -8.9250
   9   2.0000      -0.310325        -8.4444
  10   0.0000       0.027517         0.7488
  11   0.0000       0.076172         2.0727
  12   0.0000       0.116680         3.1750
  13   0.0000       0.193372         5.2619
  14   0.0000       0.323386         8.7998

MULLIKEN ATOMIC CHARGES
-----------------------
   0 O :   -0.725933
   1 H :    0.388151
   2 H :    0.386099
   3 O :   -0.773920
   4 H :    0.356594
   5 H :    0.369009
Sum of atomic charges:    0.0000000

LOEWDIN ATOMIC CHARGES
----------------------
   0 O :   -0.305348
   1 H :    0.189985
   2 H :    0.188749
   3 O :   -0.391625
   4 H :    0.142206
   5 H :    0.176033

  Mayer bond orders larger than 0.1
B(  0-O ,  1-H ) :   0.8568 B(  0-O ,  2-H ) :   0.8572 B(  0-O ,  4-H ) :   0.1113
B(  3-O ,  4-H ) :   0.8218 B(  3-O ,  5-H ) :   0.8736

Dispersion correction           -0.002309802
FINAL SINGLE POINT ENERGY      -152.888516286205

DIPOLE MOMENT
-------------
                                X             Y             Z
Electronic contribution:      0.14049      -0.00922      -0.19060
Nuclear contribution   :     -0.00869      -0.01937      -1.14564
                        -----------------------------------------
Total Dipole Moment    :      0.13179      -0.02858      -1.33624
                        -----------------------------------------
Magnitude (a.u.)       :      1.34303
Magnitude (Debye)      :      3.41371

                             ****ORCA TERMINATED NORMALLY****
TOTAL RUN TIME: 0 days 0 hours 0 minutes 50 seconds 88 msec
