                         Program Version 3.0.3 - RELEASE   -
|  1> ! wB97X-D3 MA-Def2-TZVP def2-TZVP/J RIJCOSX TightSCF Grid4
|  2>
|  3> %pal nprocs 1 end
|  4>
|  5> %scf
|  6>         maxiter 400
|  7> end
|  8>
|  9> * xyz  0  1
| 10> O  0.761900	-0.184844	-1.026904
| 11> H  1.377404	0.529775	-0.772623
| 12> H  0.252154	0.214524	-1.757948
| 13> O  -0.968421	0.119482	1.231621
| 14> H  -0.424676	-0.005852	0.419049
| 15> H  -0.851514	-0.737405	1.681283
| 16> **                         ****END OF INPUT****

CARTESIAN COORDINATES (ANGSTROEM)
---------------------------------
  O      0.761900   -0.184844   -1.026904
  H      1.377404    0.529775   -0.772623
  H      0.252154    0.214524   -1.757948
  O     -0.968421    0.119482    1.231621
  H     -0.424676   -0.005852    0.419049
  H     -0.851514   -0.737405    1.681283

 Total Charge           Charge          ....    0
 Multiplicity           Mult            ....    1
 Number of Electrons    NEL             ....   20
 Basis Dimension        Dim             ....   94

ORBITAL ENERGIES
----------------

  NO   OCC          E(Eh)            E(eV)
   0   2.0000     -19.272597      -524.4340
   1   2.0000     -19.210536      -522.7453
   2   2.0000      -1.159073       -31.5400
   3   2.0000      -1.096291       -29.8316
   4   2.0000      -0.657736       -17.8979
   5   2.0000      -0.602404       -16.3923
   6   2.0000      -0.530837       -14.4448
   7   2.0000      -0.479289       -13.0421
   8   2.0000      -0.439890       -11.9700
   9   2.0000      -0.391744       -10.6599
  10   0.0000       0.057731         1.5709
  11   0.0000       0.111822         3.0428
  12   0.0000       0.125649         3.4191
  13   0.0000       0.140517         3.8237
  14   0.0000       0.167027         4.5450

MULLIKEN ATOMIC CHARGES
-----------------------
   0 O :   -0.694653
   1 H :    0.358027
   2 H :    0.357199
   3 O :   -0.685260
   4 H :    0.341155
   5 H :    0.323532
Sum of atomic charges:    0.0000000

LOEWDIN ATOMIC CHARGES
----------------------
   0 O :   -0.356641
   1 H :    0.200020
   2 H :    0.199245
   3 O :   -0.409836
   4 H :    0.181020
   5 H :    0.186192

  Mayer bond orders larger than 0.1
B(  0-O ,  1-H ) :   0.8886 B(  0-O ,  2-H ) :   0.8890 B(  3-O ,  4-H ) :   0.8641
B(  3-O ,  5-H ) :   0.9021

Dispersion correction           -0.000548764
FINAL SINGLE POINT ENERGY      -152.887720269528

DIPOLE MOMENT
-------------
                                X             Y             Z
Electronic contribution:      0.03532      -0.03205      -0.07608
Nuclear contribution   :      0.63793       0.10968      -0.69891
                        -----------------------------------------
Total Dipole Moment    :      0.67325       0.07763      -0.77499
                        -----------------------------------------
Magnitude (a.u.)       :      1.02951
Magnitude (Debye)      :      2.61682

                             ****ORCA TERMINATED NORMALLY****
TOTAL RUN TIME: 0 days 0 hours 0 minutes 16 seconds 905 msec
