                         Program Version 3.0.3 - RELEASE   -
|  1> ! wB97X-D3 Def2-TZVP def2-TZVP/J RIJCOSX TightSCF Grid4 COSMO
|  2>
|  3> %pal nprocs 12 end
|  4>
|  5> %scf
|  6>         maxiter 400
|  7> end
|  8>
|  9> %cosmo
| 10>         SMD true
| 11>         solvent "WATER"
| 12> end
| 13>
| 14> * xyz  0  1
| 15> O  0.781428	-0.162418	-0.937504
| 16> H  1.375024	0.613012	-0.870567
| 17> H  0.172553	0.101838	-1.656749
| 18> O  -0.909662	0.134138	1.234022
| 19> H  -0.287464	0.038359	0.462178
| 20> H  -0.985033	-0.789250	1.543099
| 21> **                         ****END OF INPUT****

CARTESIAN COORDINATES (ANGSTROEM)
---------------------------------
  O      0.781428   -0.162418   -0.937504
  H      1.375024    0.613012   -0.870567
  H      0.172553    0.101838   -1.656749
  O     -0.909662    0.134138    1.234022
  H     -0.287464    0.038359    0.462178
  H     -0.985033   -0.789250    1.543099

 Total Charge           Charge          ....    0
 Multiplicity           Mult            ....    1
 Number of Electrons    NEL             ....   20
 Basis Dimension        Dim             ....   86

ORBITAL ENERGIES
----------------

  NO   OCC          E(Eh)            E(eV)
   0   2.0000     -19.247364      -523.7474
   1   2.0000     -19.218496      -522.9619
   2   2.0000      -1.134497       -30.8712
   3   2.0000      -1.102961       -30.0131
   4   2.0000      -0.627414       -17.0728
   5   2.0000      -0.608753       -16.5650
   6   2.0000      -0.519558       -14.1379
   7   2.0000      -0.488335       -13.2883
   8   2.0000      -0.426235       -11.5985
   9   2.0000      -0.409931       -11.1548
  10   0.0000       0.117279         3.1913
  11   0.0000       0.165826         4.5123
  12   0.0000       0.204726         5.5709
  13   0.0000       0.287524         7.8239
  14   0.0000       0.420762        11.4495

MULLIKEN ATOMIC CHARGES
-----------------------
   0 O :   -0.754647
   1 H :    0.403526
   2 H :    0.402753
   3 O :   -0.796585
   4 H :    0.360961
   5 H :    0.383992
Sum of atomic charges:   -0.0000000

LOEWDIN ATOMIC CHARGES
----------------------
   0 O :   -0.310846
   1 H :    0.196276
   2 H :    0.195753
   3 O :   -0.408733
   4 H :    0.146830
   5 H :    0.180720

  Mayer bond orders larger than 0.1
B(  0-O ,  1-H ) :   0.8455 B(  0-O ,  2-H ) :   0.8458 B(  0-O ,  4-H ) :   0.1127
B(  3-O ,  4-H ) :   0.8143 B(  3-O ,  5-H ) :   0.8639

Dispersion correction           -0.000541637
FINAL SINGLE POINT ENERGY      -152.912144664217

DIPOLE MOMENT
-------------
                                X             Y             Z
Electronic contribution:      0.15628      -0.01380      -0.20869
Nuclear contribution   :      0.44244       0.01708      -0.92814
                        -----------------------------------------
Total Dipole Moment    :      0.59872       0.00328      -1.13683
                        -----------------------------------------
Magnitude (a.u.)       :      1.28486
Magnitude (Debye)      :      3.26585

                             ****ORCA TERMINATED NORMALLY****
TOTAL RUN TIME: 0 days 0 hours 0 minutes 50 seconds 973 msec
