                         Program Version 3.0.3 - RELEASE   -
|  1> ! B3LYP Def2-TZVP def2-TZVP/J RIJCOSX TightSCF Grid4 D3BJ
|  2>
|  3> %pal nprocs 12 end
|  4>
|  5> %scf
|  6>         maxiter 400
|  7> end
|  8>
|  9> * xyz  0  1
| 10> O  0.919606	-0.137971	-1.063021
| 11> H  1.345167	0.718229	-0.908701
| 12> H  0.064874	0.107680	-1.449962
| 13> O  -0.921796	0.097836	1.042596
| 14> H  -0.150256	-0.200849	0.528294
| 15> H  -1.110747	-0.649246	1.625272
| 16> **                         ****END OF INPUT****

CARTESIAN COORDINATES (ANGSTROEM)
---------------------------------
  O      0.919606   -0.137971   -1.063021
  H      1.345167    0.718229   -0.908701
  H      0.064874    0.107680   -1.449962
  O     -0.921796    0.097836    1.042596
  H     -0.150256   -0.200849    0.528294
  H     -1.110747   -0.649246    1.625272

 Total Charge           Charge          ....    0
 Multiplicity           Mult            ....    1
 Number of Electrons    NEL             ....   20
 Basis Dimension        Dim             ....   86

ORBITAL ENERGIES
----------------

  NO   OCC          E(Eh)            E(eV)
   0   2.0000     -19.152468      -521.1651
   1   2.0000     -19.105353      -519.8831
   2   2.0000      -1.037286       -28.2260
   3   2.0000      -0.990183       -26.9442
   4   2.0000      -0.550856       -14.9895
   5   2.0000      -0.511859       -13.9284
   6   2.0000      -0.418383       -11.3848
   7   2.0000      -0.377312       -10.2672
   8   2.0000      -0.336484        -9.1562
   9   2.0000      -0.297748        -8.1021
  10   0.0000       0.003154         0.0858
  11   0.0000       0.054193         1.4747
  12   0.0000       0.084489         2.2991
  13   0.0000       0.166014         4.5175
  14   0.0000       0.325044         8.8449

MULLIKEN ATOMIC CHARGES
-----------------------
   0 O :   -0.633582
   1 H :    0.334352
   2 H :    0.336253
   3 O :   -0.659973
   4 H :    0.315348
   5 H :    0.307602
Sum of atomic charges:   -0.0000000

LOEWDIN ATOMIC CHARGES
----------------------
   0 O :   -0.282017
   1 H :    0.165750
   2 H :    0.165659
   3 O :   -0.339036
   4 H :    0.136480
   5 H :    0.153164

  Mayer bond orders larger than 0.1
B(  0-O ,  1-H ) :   0.8962 B(  0-O ,  2-H ) :   0.8918 B(  3-O ,  4-H ) :   0.8615
B(  3-O ,  5-H ) :   0.9136

Dispersion correction           -0.002337222
FINAL SINGLE POINT ENERGY      -152.861778661205

DIPOLE MOMENT
-------------
                                X             Y             Z
Electronic contribution:      0.10145      -0.00513      -0.12884
Nuclear contribution   :      0.12770       0.04668      -0.13671
                        -----------------------------------------
Total Dipole Moment    :      0.22915       0.04155      -0.26555
                        -----------------------------------------
Magnitude (a.u.)       :      0.35321
Magnitude (Debye)      :      0.89778

                             ****ORCA TERMINATED NORMALLY****
TOTAL RUN TIME: 0 days 0 hours 0 minutes 48 seconds 485 msec
