                         Program Version 3.0.3 - RELEASE   -
|  1> ! wB97X-D3 Def2-TZVP def2-TZVP/J RIJCOSX TightSCF Grid4 COSMO
|  2>
|  3> %pal nprocs 12 end
|  4>
|  5> %scf
|  6>         maxiter 400
|  7> end
|  8>
|  9> %cosmo
| 10>         SMD true
| 11>         solvent "WATER"
| 12> end
| 13>
| 14> * xyz  0  1
| 15> O  0.860831	-0.127842	-0.930763
| 16> H  1.296388	0.739539	-0.960785
| 17> H  0.158869	-0.036338	-1.595968
| 18> O  -0.808401	0.114159	1.314382
| 19> H  -0.188220	0.026928	0.557695
| 20> H  -1.172620	-0.780766	1.389917
| 21> **                         ****END OF INPUT****

CARTESIAN COORDINATES (ANGSTROEM)
---------------------------------
  O      0.860831   -0.127842   -0.930763
  H      1.296388    0.739539   -0.960785
  H      0.158869   -0.036338   -1.595968
  O     -0.808401    0.114159    1.314382
  H     -0.188220    0.026928    0.557695
  H     -1.172620   -0.780766    1.389917

 Total Charge           Charge          ....    0
 Multiplicity           Mult            ....    1
 Number of Electrons    NEL             ....   20
 Basis Dimension        Dim             ....   86

ORBITAL ENERGIES
----------------

  NO   OCC          E(Eh)            E(eV)
   0   2.0000     -19.244858      -523.6792
   1   2.0000     -19.219521      -522.9898
   2   2.0000      -1.135825       -30.9074
   3   2.0000      -1.108848       -30.1733
   4   2.0000      -0.629783       -17.1373
   5   2.0000      -0.614289       -16.7156
   6   2.0000      -0.516769       -14.0620
   7   2.0000      -0.491148       -13.3648
   8   2.0000      -0.427045       -11.6205
   9   2.0000      -0.411922       -11.2090
  10   0.0000       0.117800         3.2055
  11   0.0000       0.167620         4.5612
  12   0.0000       0.206173         5.6103
  13   0.0000       0.281799         7.6681
  14   0.0000       0.417639        11.3645

MULLIKEN ATOMIC CHARGES
-----------------------
   0 O :   -0.757062
   1 H :    0.401804
   2 H :    0.400040
   3 O :   -0.787420
   4 H :    0.358185
   5 H :    0.384453
Sum of atomic charges:    0.0000000

LOEWDIN ATOMIC CHARGES
----------------------
   0 O :   -0.309392
   1 H :    0.190719
   2 H :    0.189689
   3 O :   -0.390518
   4 H :    0.141956
   5 H :    0.177546

  Mayer bond orders larger than 0.1
B(  0-O ,  1-H ) :   0.8478 B(  0-O ,  2-H ) :   0.8482 B(  0-O ,  4-H ) :   0.1016
B(  3-O ,  4-H ) :   0.8262 B(  3-O ,  5-H ) :   0.8640

Dispersion correction           -0.000554042
FINAL SINGLE POINT ENERGY      -152.909120140827

DIPOLE MOMENT
-------------
                                X             Y             Z
Electronic contribution:      0.12880      -0.00933      -0.18969
Nuclear contribution   :     -0.00869      -0.01937      -1.14564
                        -----------------------------------------
Total Dipole Moment    :      0.12011      -0.02870      -1.33533
                        -----------------------------------------
Magnitude (a.u.)       :      1.34103
Magnitude (Debye)      :      3.40863

                             ****ORCA TERMINATED NORMALLY****
TOTAL RUN TIME: 0 days 0 hours 0 minutes 50 seconds 807 msec
