                         Program Version 4.2.0 -  RELEASE  -
|  1> # 12h2o.su.etal.mol0,2,6,7,9,10,11
|  2> ! MP2 def2-TZVP EnGrad TightSCF
|  3>
|  4> %pal
|  5>     nprocs 6
|  6> end
|  7>
|  8> %maxcore 8000
|  9>
| 10> %scf
| 11>     ConvForced true
| 12> end
| 13>
| 14> *xyz 0 1
| 15> O   1.794470000   0.923410000   2.768350000
| 16> H   2.338250000   1.359750000   3.430940000
| 17> H   0.879480000   1.303000000   2.865760000
| 18> O   0.923410000  -1.794470000  -2.768350000
| 19> H   1.359750000  -2.338250000  -3.430940000
| 20> H   1.303000000  -0.879480000  -2.865760000
| 21> O   1.737840000   0.885520000  -0.052730000
| 22> H   2.090180000   1.032320000   0.841890000
| 23> H   0.839590000   1.284090000  -0.017130000
| 24> O  -1.737840000  -0.885520000  -0.052730000
| 25> H  -2.090180000  -1.032320000   0.841890000
| 26> H  -0.839590000  -1.284090000  -0.017130000
| 27> O   0.741530000  -1.752130000   2.896280000
| 28> H   0.920500000  -2.036450000   1.984040000
| 29> H   1.242140000  -0.921210000   2.984230000
| 30> O  -0.923410000   1.794470000  -2.768350000
| 31> H  -1.359750000   2.338250000  -3.430940000
| 32> H  -1.303000000   0.879480000  -2.865760000
| 33> O  -0.741530000   1.752130000   2.896280000
| 34> H  -0.920500000   2.036450000   1.984040000
| 35> H  -1.242140000   0.921210000   2.984230000
| 36> *
| 37>
| 38>                          ****END OF INPUT****

CARTESIAN COORDINATES (ANGSTROEM)
---------------------------------
  O      1.794470    0.923410    2.768350
  H      2.338250    1.359750    3.430940
  H      0.879480    1.303000    2.865760
  O      0.923410   -1.794470   -2.768350
  H      1.359750   -2.338250   -3.430940
  H      1.303000   -0.879480   -2.865760
  O      1.737840    0.885520   -0.052730
  H      2.090180    1.032320    0.841890
  H      0.839590    1.284090   -0.017130
  O     -1.737840   -0.885520   -0.052730
  H     -2.090180   -1.032320    0.841890
  H     -0.839590   -1.284090   -0.017130
  O      0.741530   -1.752130    2.896280
  H      0.920500   -2.036450    1.984040
  H      1.242140   -0.921210    2.984230
  O     -0.923410    1.794470   -2.768350
  H     -1.359750    2.338250   -3.430940
  H     -1.303000    0.879480   -2.865760
  O     -0.741530    1.752130    2.896280
  H     -0.920500    2.036450    1.984040
  H     -1.242140    0.921210    2.984230

 Total Charge           Charge          ....    0
 Multiplicity           Mult            ....    1
 Number of Electrons    NEL             ....   70
 Basis Dimension        Dim             ....  301

ORBITAL ENERGIES
----------------

  NO   OCC          E(Eh)            E(eV)
   0   2.0000     -20.612898      -560.9055
   1   2.0000     -20.571916      -559.7903
   2   2.0000     -20.564491      -559.5882
   3   2.0000     -20.557666      -559.4025
   4   2.0000     -20.553908      -559.3003
   5   2.0000     -20.540659      -558.9398
   6   2.0000     -20.534397      -558.7693
   7   2.0000      -1.399190       -38.0739
   8   2.0000      -1.358268       -36.9604
   9   2.0000      -1.340222       -36.4693
  10   2.0000      -1.333018       -36.2733
  11   2.0000      -1.329245       -36.1706
  12   2.0000      -1.322527       -35.9878
  13   2.0000      -1.313043       -35.7297
  14   2.0000      -0.755128       -20.5481
  15   2.0000      -0.740350       -20.1459
  16   2.0000      -0.703031       -19.1304
  17   2.0000      -0.700687       -19.0667
  18   2.0000      -0.696644       -18.9567
  19   2.0000      -0.692068       -18.8321
  20   2.0000      -0.682699       -18.5772
  21   2.0000      -0.640590       -17.4313
  22   2.0000      -0.602320       -16.3900
  23   2.0000      -0.580416       -15.7939
  24   2.0000      -0.570403       -15.5215
  25   2.0000      -0.569680       -15.5018
  26   2.0000      -0.566374       -15.4118
  27   2.0000      -0.557602       -15.1731
  28   2.0000      -0.540939       -14.7197
  29   2.0000      -0.513984       -13.9862
  30   2.0000      -0.507689       -13.8149
  31   2.0000      -0.501277       -13.6404
  32   2.0000      -0.497122       -13.5274
  33   2.0000      -0.488129       -13.2827
  34   2.0000      -0.479542       -13.0490
  35   0.0000       0.082707         2.2506
  36   0.0000       0.123074         3.3490
  37   0.0000       0.138245         3.7618
  38   0.0000       0.142144         3.8679
  39   0.0000       0.154438         4.2025

MULLIKEN ATOMIC CHARGES
-----------------------
   0 O :   -0.748430
   1 H :    0.351124
   2 H :    0.380153
   3 O :   -0.695532
   4 H :    0.335752
   5 H :    0.360349
   6 O :   -0.698115
   7 H :    0.363586
   8 H :    0.322944
   9 O :   -0.684688
  10 H :    0.328980
  11 H :    0.353995
  12 O :   -0.714552
  13 H :    0.332283
  14 H :    0.363737
  15 O :   -0.693956
  16 H :    0.335727
  17 H :    0.358829
  18 O :   -0.683045
  19 H :    0.363884
  20 H :    0.366976
Sum of atomic charges:    0.0000000

LOEWDIN ATOMIC CHARGES
----------------------
   0 O :   -0.312044
   1 H :    0.159617
   2 H :    0.145530
   3 O :   -0.342745
   4 H :    0.156811
   5 H :    0.186135
   6 O :   -0.345065
   7 H :    0.146648
   8 H :    0.159927
   9 O :   -0.335296
  10 H :    0.159476
  11 H :    0.174670
  12 O :   -0.348208
  13 H :    0.159117
  14 H :    0.147260
  15 O :   -0.342055
  16 H :    0.156770
  17 H :    0.185623
  18 O :   -0.265471
  19 H :    0.175239
  20 H :    0.178063

  Mayer bond orders larger than 0.100000
B(  0-O ,  1-H ) :   0.8398 B(  0-O ,  2-H ) :   0.7514 B(  3-O ,  4-H ) :   0.8542
B(  3-O ,  5-H ) :   0.8308 B(  6-O ,  7-H ) :   0.8177 B(  6-O ,  8-H ) :   0.8536
B(  9-O , 10-H ) :   0.8553 B(  9-O , 11-H ) :   0.8336 B( 12-O , 13-H ) :   0.8537
B( 12-O , 14-H ) :   0.8102 B( 15-O , 16-H ) :   0.8541 B( 15-O , 17-H ) :   0.8319
B( 18-O , 19-H ) :   0.8318 B( 18-O , 20-H ) :   0.8270

MP2 TOTAL ENERGY:     -534.227945173 Eh
FINAL SINGLE POINT ENERGY      -534.227945172905

DIPOLE MOMENT
-------------
                                X             Y             Z
Electronic contribution:     -0.12751       0.13493       0.22255
Nuclear contribution   :     -0.30898       0.67915      -0.45625
                        -----------------------------------------
Total Dipole Moment    :     -0.43649       0.81408      -0.23370
                        -----------------------------------------
Magnitude (a.u.)       :      0.95282
Magnitude (Debye)      :      2.42187

Rotational constants in cm-1:     0.036040     0.018623     0.016896
Rotational constants in MHz :  1080.463161   558.308092   506.527403

                             ****ORCA TERMINATED NORMALLY****
TOTAL RUN TIME: 0 days 0 hours 1 minutes 35 seconds 357 msec
