                         Program Version 4.2.0 -  RELEASE  -
|  1> # 12meoh.boyd.etal.mol4,7,10
|  2> ! MP2 def2-TZVP EnGrad TightSCF
|  3>
|  4> %pal
|  5>     nprocs 6
|  6> end
|  7>
|  8> %maxcore 8000
|  9>
| 10> %scf
| 11>     ConvForced true
| 12> end
| 13>
| 14> *xyz 0 1
| 15> O  -1.358578914   1.232360421   1.189721000
| 16> H  -1.058250183   1.216459361   0.238591307
| 17> C  -0.389763452   1.957872567   1.943072362
| 18> H  -0.747220771   2.012806578   2.975200343
| 19> H  -0.260410585   2.982763209   1.565366540
| 20> H   0.585220638   1.453754179   1.934070793
| 21> O   4.310535586  -1.588322800   0.656128299
| 22> H   3.804372199  -1.630404735  -0.196849819
| 23> C   4.312298137  -2.894980854   1.222112691
| 24> H   4.713177833  -2.819907076   2.237066773
| 25> H   4.957796734  -3.574699304   0.648211180
| 26> H   3.302735989  -3.324433205   1.269756773
| 27> O  -5.201143618   0.064582726  -0.172223772
| 28> H  -4.686891530   0.869258890   0.107806143
| 29> C  -6.513192168   0.171391798   0.359883449
| 30> H  -7.049381312  -0.749234190   0.111361174
| 31> H  -7.057741163   1.017801101  -0.081819420
| 32> H  -6.514770575   0.292264928   1.453058834
| 33> *
| 34>
| 35>                          ****END OF INPUT****

CARTESIAN COORDINATES (ANGSTROEM)
---------------------------------
  O     -1.358579    1.232360    1.189721
  H     -1.058250    1.216459    0.238591
  C     -0.389763    1.957873    1.943072
  H     -0.747221    2.012807    2.975200
  H     -0.260411    2.982763    1.565367
  H      0.585221    1.453754    1.934071
  O      4.310536   -1.588323    0.656128
  H      3.804372   -1.630405   -0.196850
  C      4.312298   -2.894981    1.222113
  H      4.713178   -2.819907    2.237067
  H      4.957797   -3.574699    0.648211
  H      3.302736   -3.324433    1.269757
  O     -5.201144    0.064583   -0.172224
  H     -4.686892    0.869259    0.107806
  C     -6.513192    0.171392    0.359883
  H     -7.049381   -0.749234    0.111361
  H     -7.057741    1.017801   -0.081819
  H     -6.514771    0.292265    1.453059

 Total Charge           Charge          ....    0
 Multiplicity           Mult            ....    1
 Number of Electrons    NEL             ....   54
 Basis Dimension        Dim             ....  258

ORBITAL ENERGIES
----------------

  NO   OCC          E(Eh)            E(eV)
   0   2.0000     -20.560377      -559.4763
   1   2.0000     -20.558843      -559.4346
   2   2.0000     -20.549430      -559.1784
   3   2.0000     -11.272636      -306.7440
   4   2.0000     -11.272376      -306.7369
   5   2.0000     -11.265280      -306.5439
   6   2.0000      -1.348469       -36.6937
   7   2.0000      -1.347709       -36.6730
   8   2.0000      -1.339718       -36.4556
   9   2.0000      -0.920454       -25.0468
  10   2.0000      -0.920430       -25.0462
  11   2.0000      -0.912710       -24.8361
  12   2.0000      -0.683073       -18.5874
  13   2.0000      -0.682382       -18.5686
  14   2.0000      -0.674830       -18.3631
  15   2.0000      -0.618181       -16.8216
  16   2.0000      -0.617902       -16.8140
  17   2.0000      -0.610048       -16.6003
  18   2.0000      -0.591994       -16.1090
  19   2.0000      -0.591952       -16.1078
  20   2.0000      -0.584480       -15.9045
  21   2.0000      -0.502163       -13.6646
  22   2.0000      -0.502036       -13.6611
  23   2.0000      -0.492977       -13.4146
  24   2.0000      -0.451328       -12.2813
  25   2.0000      -0.450277       -12.2527
  26   2.0000      -0.441201       -12.0057
  27   0.0000       0.122706         3.3390
  28   0.0000       0.134186         3.6514
  29   0.0000       0.151717         4.1284
  30   0.0000       0.170976         4.6525
  31   0.0000       0.176061         4.7909

MULLIKEN ATOMIC CHARGES
-----------------------
   0 O :   -0.500421
   1 H :    0.323541
   2 C :   -0.177381
   3 H :    0.129147
   4 H :    0.109223
   5 H :    0.118339
   6 O :   -0.497870
   7 H :    0.321058
   8 C :   -0.174732
   9 H :    0.129267
  10 H :    0.109677
  11 H :    0.112797
  12 O :   -0.499870
  13 H :    0.326888
  14 C :   -0.171817
  15 H :    0.126120
  16 H :    0.105735
  17 H :    0.110300
Sum of atomic charges:   -0.0000000

LOEWDIN ATOMIC CHARGES
----------------------
   0 O :   -0.114628
   1 H :    0.192315
   2 C :   -0.379687
   3 H :    0.110337
   4 H :    0.095567
   5 H :    0.097900
   6 O :   -0.110236
   7 H :    0.189167
   8 C :   -0.380909
   9 H :    0.110118
  10 H :    0.095546
  11 H :    0.096413
  12 O :   -0.107394
  13 H :    0.192496
  14 C :   -0.385837
  15 H :    0.109202
  16 H :    0.093952
  17 H :    0.095679

  Mayer bond orders larger than 0.100000
B(  0-O ,  1-H ) :   0.8401 B(  0-O ,  2-C ) :   0.9197 B(  2-C ,  3-H ) :   0.9378
B(  2-C ,  4-H ) :   0.9383 B(  2-C ,  5-H ) :   0.9379 B(  6-O ,  7-H ) :   0.8433
B(  6-O ,  8-C ) :   0.9245 B(  8-C ,  9-H ) :   0.9377 B(  8-C , 10-H ) :   0.9382
B(  8-C , 11-H ) :   0.9401 B( 12-O , 13-H ) :   0.8365 B( 12-O , 14-C ) :   0.9327
B( 14-C , 15-H ) :   0.9380 B( 14-C , 16-H ) :   0.9395 B( 14-C , 17-H ) :   0.9384

MP2 TOTAL ENERGY:     -346.521462461 Eh
FINAL SINGLE POINT ENERGY      -346.521462460663

DIPOLE MOMENT
-------------
                                X             Y             Z
Electronic contribution:      0.45984       0.48179      -2.10051
Nuclear contribution   :     -0.34939      -0.22194       1.94858
                        -----------------------------------------
Total Dipole Moment    :      0.11045       0.25985      -0.15193
                        -----------------------------------------
Magnitude (a.u.)       :      0.32063
Magnitude (Debye)      :      0.81497

Rotational constants in cm-1:     0.081875     0.009370     0.008573
Rotational constants in MHz :  2454.555575   280.915194   257.016252

                             ****ORCA TERMINATED NORMALLY****
TOTAL RUN TIME: 0 days 0 hours 0 minutes 46 seconds 128 msec
