                         Program Version 4.2.0 -  RELEASE  -
|  1> # 12mecn.remya.etal.2.mol1,7,11
|  2> ! MP2 def2-TZVP EnGrad TightSCF
|  3>
|  4> %pal
|  5>     nprocs 6
|  6> end
|  7>
|  8> %maxcore 8000
|  9>
| 10> %scf
| 11>     ConvForced true
| 12> end
| 13>
| 14> *xyz 0 1
| 15> C  -4.697980000  -0.249690000   1.746215000
| 16> H  -4.927570000   0.755530000   2.111799000
| 17> H  -3.709180000  -0.561560000   2.093253000
| 18> H  -5.432280000  -0.961520000   2.128066000
| 19> C  -4.714100000  -0.247110000   0.301670000
| 20> N  -4.729750000  -0.234960000  -0.865260000
| 21> C   1.502241000   0.651296000   1.710523000
| 22> H   1.309219000   1.637164000   2.143202000
| 23> H   2.493408000   0.297996000   2.009069000
| 24> H   0.746597000  -0.059850000   2.055508000
| 25> C   1.447974000   0.738517000   0.269805000
| 26> N   1.405612000   0.808047000  -0.894380000
| 27> C   4.214163000   3.378139000   1.593627000
| 28> H   3.242643000   3.657109000   2.012358000
| 29> H   4.969258000   4.086643000   1.941290000
| 30> H   4.482966000   2.372549000   1.931698000
| 31> C   4.130759000   3.388436000   0.150192000
| 32> N   4.050180000   3.381449000  -1.013420000
| 33> *
| 34>
| 35>                          ****END OF INPUT****

CARTESIAN COORDINATES (ANGSTROEM)
---------------------------------
  C     -4.697980   -0.249690    1.746215
  H     -4.927570    0.755530    2.111799
  H     -3.709180   -0.561560    2.093253
  H     -5.432280   -0.961520    2.128066
  C     -4.714100   -0.247110    0.301670
  N     -4.729750   -0.234960   -0.865260
  C      1.502241    0.651296    1.710523
  H      1.309219    1.637164    2.143202
  H      2.493408    0.297996    2.009069
  H      0.746597   -0.059850    2.055508
  C      1.447974    0.738517    0.269805
  N      1.405612    0.808047   -0.894380
  C      4.214163    3.378139    1.593627
  H      3.242643    3.657109    2.012358
  H      4.969258    4.086643    1.941290
  H      4.482966    2.372549    1.931698
  C      4.130759    3.388436    0.150192
  N      4.050180    3.381449   -1.013420

 Total Charge           Charge          ....    0
 Multiplicity           Mult            ....    1
 Number of Electrons    NEL             ....   66
 Basis Dimension        Dim             ....  333

ORBITAL ENERGIES
----------------

  NO   OCC          E(Eh)            E(eV)
   0   2.0000     -15.573303      -423.7711
   1   2.0000     -15.572330      -423.7446
   2   2.0000     -15.571693      -423.7273
   3   2.0000     -11.292465      -307.2836
   4   2.0000     -11.290669      -307.2347
   5   2.0000     -11.287468      -307.1476
   6   2.0000     -11.279534      -306.9317
   7   2.0000     -11.276471      -306.8484
   8   2.0000     -11.276396      -306.8463
   9   2.0000      -1.214002       -33.0347
  10   2.0000      -1.212747       -33.0005
  11   2.0000      -1.211392       -32.9636
  12   2.0000      -1.050327       -28.5809
  13   2.0000      -1.046708       -28.4824
  14   2.0000      -1.046101       -28.4658
  15   2.0000      -0.704990       -19.1838
  16   2.0000      -0.702140       -19.1062
  17   2.0000      -0.701841       -19.0981
  18   2.0000      -0.644501       -17.5378
  19   2.0000      -0.641933       -17.4679
  20   2.0000      -0.636457       -17.3189
  21   2.0000      -0.635171       -17.2839
  22   2.0000      -0.632448       -17.2098
  23   2.0000      -0.630739       -17.1633
  24   2.0000      -0.555119       -15.1056
  25   2.0000      -0.553768       -15.0688
  26   2.0000      -0.551039       -14.9945
  27   2.0000      -0.463234       -12.6052
  28   2.0000      -0.457468       -12.4483
  29   2.0000      -0.457221       -12.4416
  30   2.0000      -0.456916       -12.4333
  31   2.0000      -0.454023       -12.3546
  32   2.0000      -0.446990       -12.1632
  33   0.0000       0.090639         2.4664
  34   0.0000       0.110808         3.0152
  35   0.0000       0.141155         3.8410
  36   0.0000       0.143247         3.8980
  37   0.0000       0.152573         4.1517

MULLIKEN ATOMIC CHARGES
-----------------------
   0 C :   -0.278930
   1 H :    0.172303
   2 H :    0.164924
   3 H :    0.172965
   4 C :   -0.145480
   5 N :   -0.085783
   6 C :   -0.282314
   7 H :    0.162242
   8 H :    0.166582
   9 H :    0.177311
  10 C :   -0.156158
  11 N :   -0.067698
  12 C :   -0.283771
  13 H :    0.162924
  14 H :    0.182737
  15 H :    0.163230
  16 C :   -0.155265
  17 N :   -0.069819
Sum of atomic charges:    0.0000000

LOEWDIN ATOMIC CHARGES
----------------------
   0 C :   -0.285016
   1 H :    0.152573
   2 H :    0.150498
   3 H :    0.151606
   4 C :   -0.220742
   5 N :    0.051082
   6 C :   -0.289155
   7 H :    0.148164
   8 H :    0.150192
   9 H :    0.152108
  10 C :   -0.226746
  11 N :    0.065399
  12 C :   -0.288563
  13 H :    0.148935
  14 H :    0.151949
  15 H :    0.149258
  16 C :   -0.224454
  17 N :    0.062913

  Mayer bond orders larger than 0.100000
B(  0-C ,  1-H ) :   0.9165 B(  0-C ,  2-H ) :   0.9186 B(  0-C ,  3-H ) :   0.9171
B(  0-C ,  4-C ) :   0.9016 B(  4-C ,  5-N ) :   2.8323 B(  6-C ,  7-H ) :   0.9219
B(  6-C ,  8-H ) :   0.9226 B(  6-C ,  9-H ) :   0.9130 B(  6-C , 10-C ) :   0.8954
B( 10-C , 11-N ) :   2.8221 B( 12-C , 13-H ) :   0.9226 B( 12-C , 14-H ) :   0.9110
B( 12-C , 15-H ) :   0.9209 B( 12-C , 16-C ) :   0.9002 B( 16-C , 17-N ) :   2.8256

MP2 TOTAL ENERGY:     -397.445587413 Eh
FINAL SINGLE POINT ENERGY      -397.445587412761

DIPOLE MOMENT
-------------
                                X             Y             Z
Electronic contribution:     -0.34994       0.24857      -9.56843
Nuclear contribution   :      0.51069      -0.34988      13.90179
                        -----------------------------------------
Total Dipole Moment    :      0.16075      -0.10131       4.33335
                        -----------------------------------------
Magnitude (a.u.)       :      4.33752
Magnitude (Debye)      :     11.02509

Rotational constants in cm-1:     0.076904     0.008475     0.008070
Rotational constants in MHz :  2305.516402   254.059850   241.945522

                             ****ORCA TERMINATED NORMALLY****
TOTAL RUN TIME: 0 days 0 hours 2 minutes 45 seconds 710 msec
