                         Program Version 4.2.0 -  RELEASE  -
|  1> # 12h2o.su.etal.mol3,5,8,9,10
|  2> ! MP2 def2-TZVP EnGrad TightSCF
|  3>
|  4> %pal
|  5>     nprocs 6
|  6> end
|  7>
|  8> %maxcore 8000
|  9>
| 10> %scf
| 11>     ConvForced true
| 12> end
| 13>
| 14> *xyz 0 1
| 15> O  -1.752130000  -0.741530000  -2.896280000
| 16> H  -2.036450000  -0.920500000  -1.984040000
| 17> H  -0.921210000  -1.242140000  -2.984230000
| 18> O   0.885520000  -1.737840000   0.052730000
| 19> H   1.284090000  -0.839590000   0.017130000
| 20> H   1.032320000  -2.090180000  -0.841890000
| 21> O   1.752130000   0.741530000  -2.896280000
| 22> H   2.036450000   0.920500000  -1.984040000
| 23> H   0.921210000   1.242140000  -2.984230000
| 24> O   0.741530000  -1.752130000   2.896280000
| 25> H   0.920500000  -2.036450000   1.984040000
| 26> H   1.242140000  -0.921210000   2.984230000
| 27> O  -0.923410000   1.794470000  -2.768350000
| 28> H  -1.359750000   2.338250000  -3.430940000
| 29> H  -1.303000000   0.879480000  -2.865760000
| 30> *
| 31>
| 32>                          ****END OF INPUT****

CARTESIAN COORDINATES (ANGSTROEM)
---------------------------------
  O     -1.752130   -0.741530   -2.896280
  H     -2.036450   -0.920500   -1.984040
  H     -0.921210   -1.242140   -2.984230
  O      0.885520   -1.737840    0.052730
  H      1.284090   -0.839590    0.017130
  H      1.032320   -2.090180   -0.841890
  O      1.752130    0.741530   -2.896280
  H      2.036450    0.920500   -1.984040
  H      0.921210    1.242140   -2.984230
  O      0.741530   -1.752130    2.896280
  H      0.920500   -2.036450    1.984040
  H      1.242140   -0.921210    2.984230
  O     -0.923410    1.794470   -2.768350
  H     -1.359750    2.338250   -3.430940
  H     -1.303000    0.879480   -2.865760

 Total Charge           Charge          ....    0
 Multiplicity           Mult            ....    1
 Number of Electrons    NEL             ....   50
 Basis Dimension        Dim             ....  215

ORBITAL ENERGIES
----------------

  NO   OCC          E(Eh)            E(eV)
   0   2.0000     -20.609814      -560.8215
   1   2.0000     -20.601991      -560.6087
   2   2.0000     -20.555374      -559.3402
   3   2.0000     -20.550830      -559.2165
   4   2.0000     -20.537637      -558.8575
   5   2.0000      -1.395527       -37.9742
   6   2.0000      -1.380113       -37.5548
   7   2.0000      -1.342055       -36.5192
   8   2.0000      -1.330042       -36.1923
   9   2.0000      -1.319506       -35.9056
  10   2.0000      -0.752158       -20.4672
  11   2.0000      -0.742757       -20.2115
  12   2.0000      -0.725350       -19.7378
  13   2.0000      -0.700212       -19.0537
  14   2.0000      -0.689769       -18.7696
  15   2.0000      -0.634963       -17.2782
  16   2.0000      -0.619833       -16.8665
  17   2.0000      -0.593726       -16.1561
  18   2.0000      -0.568570       -15.4716
  19   2.0000      -0.558771       -15.2049
  20   2.0000      -0.541351       -14.7309
  21   2.0000      -0.537791       -14.6340
  22   2.0000      -0.505342       -13.7511
  23   2.0000      -0.497196       -13.5294
  24   2.0000      -0.483879       -13.1670
  25   0.0000       0.073825         2.0089
  26   0.0000       0.119553         3.2532
  27   0.0000       0.142122         3.8673
  28   0.0000       0.155607         4.2343
  29   0.0000       0.167215         4.5502

MULLIKEN ATOMIC CHARGES
-----------------------
   0 O :   -0.681880
   1 H :    0.366757
   2 H :    0.359231
   3 O :   -0.690022
   4 H :    0.341004
   5 H :    0.349885
   6 O :   -0.708993
   7 H :    0.318197
   8 H :    0.366804
   9 O :   -0.690140
  10 H :    0.368708
  11 H :    0.317642
  12 O :   -0.739124
  13 H :    0.343434
  14 H :    0.378499
Sum of atomic charges:   -0.0000000

LOEWDIN ATOMIC CHARGES
----------------------
   0 O :   -0.267394
   1 H :    0.177951
   2 H :    0.174401
   3 O :   -0.314973
   4 H :    0.172386
   5 H :    0.168540
   6 O :   -0.347719
   7 H :    0.153202
   8 H :    0.149242
   9 O :   -0.337837
  10 H :    0.152430
  11 H :    0.157395
  12 O :   -0.339405
  13 H :    0.156872
  14 H :    0.144910

  Mayer bond orders larger than 0.100000
B(  0-O ,  1-H ) :   0.8312 B(  0-O ,  2-H ) :   0.8326 B(  3-O ,  4-H ) :   0.8407
B(  3-O ,  5-H ) :   0.8408 B(  6-O ,  7-H ) :   0.8627 B(  6-O ,  8-H ) :   0.7987
B(  9-O , 10-H ) :   0.8239 B(  9-O , 11-H ) :   0.8641 B( 12-O , 13-H ) :   0.8472
B( 12-O , 14-H ) :   0.7658

MP2 TOTAL ENERGY:     -381.592084005 Eh
FINAL SINGLE POINT ENERGY      -381.592084005424

DIPOLE MOMENT
-------------
                                X             Y             Z
Electronic contribution:     -0.38894      -0.33563      -0.08607
Nuclear contribution   :      0.34045       0.60038      -0.72077
                        -----------------------------------------
Total Dipole Moment    :     -0.04849       0.26475      -0.80684
                        -----------------------------------------
Magnitude (a.u.)       :      0.85055
Magnitude (Debye)      :      2.16192

Rotational constants in cm-1:     0.087793     0.025324     0.022859
Rotational constants in MHz :  2631.955392   759.186797   685.306166

                             ****ORCA TERMINATED NORMALLY****
TOTAL RUN TIME: 0 days 0 hours 0 minutes 27 seconds 197 msec
