                         Program Version 4.2.0 -  RELEASE  -
|  1> ! MP2 def2-TZVP EnGrad TightSCF FrozenCore
|  2>
|  3> %pal
|  4>     nprocs 12
|  5> end
|  6>
|  7> %maxcore 8000
|  8>
|  9> %scf
| 10>     ConvForced true
| 11> end
| 12>
| 13> *xyz 0 1
| 14> C     1.630585     2.805125    -1.070873
| 15> H     1.800779     2.951760    -0.000960
| 16> H     0.554954     2.705385    -1.245779
| 17> H     2.019104     3.658139    -1.633058
| 18> C     2.292917     1.576111    -1.497966
| 19> N     2.820155     0.599358    -1.842246
| 20> C    -0.240167    -1.479312     1.776841
| 21> H    -1.053092    -1.524652     1.044874
| 22> H    -0.683124    -1.512645     2.775444
| 23> H     0.432624    -2.329880     1.631756
| 24> C     0.512135    -0.239201     1.611462
| 25> N     1.119031     0.743562     1.472160
| 26> C    -1.630572     2.805109     1.070898
| 27> H    -0.554936     2.705326     1.245745
| 28> H    -2.019035     3.658113     1.633136
| 29> H    -1.800815     2.951790     0.001000
| 30> C    -2.292917     1.576098     1.497978
| 31> N    -2.820162     0.599346     1.842248
| 32> C     0.240167    -1.479287    -1.776861
| 33> H     0.683119    -1.512603    -2.775466
| 34> H    -0.432623    -2.329856    -1.631787
| 35> H     1.053096    -1.524643    -1.044900
| 36> C    -0.512133    -0.239177    -1.611461
| 37> N    -1.119028     0.743585    -1.472147
| 38> C     4.392956    -0.401351     0.833992
| 39> H     4.852869    -0.168360    -0.129200
| 40> H     5.166985    -0.616347     1.575195
| 41> H     3.800181     0.459256     1.158861
| 42> C     3.507494    -1.552607     0.687051
| 43> N     2.799006    -2.467989     0.584584
| 44> C    -4.392961    -0.401338    -0.833998
| 45> H    -3.800187     0.459268    -1.158871
| 46> H    -4.852868    -0.168344     0.129197
| 47> H    -5.166995    -0.616335    -1.575195
| 48> C    -3.507499    -1.552596    -0.687062
| 49> N    -2.799011    -2.467978    -0.584599
| 50> *
| 51>
| 52>                          ****END OF INPUT****

CARTESIAN COORDINATES (ANGSTROEM)
---------------------------------
  C      1.630585    2.805125   -1.070873
  H      1.800779    2.951760   -0.000960
  H      0.554954    2.705385   -1.245779
  H      2.019104    3.658139   -1.633058
  C      2.292917    1.576111   -1.497966
  N      2.820155    0.599358   -1.842246
  C     -0.240167   -1.479312    1.776841
  H     -1.053092   -1.524652    1.044874
  H     -0.683124   -1.512645    2.775444
  H      0.432624   -2.329880    1.631756
  C      0.512135   -0.239201    1.611462
  N      1.119031    0.743562    1.472160
  C     -1.630572    2.805109    1.070898
  H     -0.554936    2.705326    1.245745
  H     -2.019035    3.658113    1.633136
  H     -1.800815    2.951790    0.001000
  C     -2.292917    1.576098    1.497978
  N     -2.820162    0.599346    1.842248
  C      0.240167   -1.479287   -1.776861
  H      0.683119   -1.512603   -2.775466
  H     -0.432623   -2.329856   -1.631787
  H      1.053096   -1.524643   -1.044900
  C     -0.512133   -0.239177   -1.611461
  N     -1.119028    0.743585   -1.472147
  C      4.392956   -0.401351    0.833992
  H      4.852869   -0.168360   -0.129200
  H      5.166985   -0.616347    1.575195
  H      3.800181    0.459256    1.158861
  C      3.507494   -1.552607    0.687051
  N      2.799006   -2.467989    0.584584
  C     -4.392961   -0.401338   -0.833998
  H     -3.800187    0.459268   -1.158871
  H     -4.852868   -0.168344    0.129197
  H     -5.166995   -0.616335   -1.575195
  C     -3.507499   -1.552596   -0.687062
  N     -2.799011   -2.467978   -0.584599

 Total Charge           Charge          ....    0
 Multiplicity           Mult            ....    1
 Number of Electrons    NEL             ....  132
 Basis Dimension        Dim             ....  666

ORBITAL ENERGIES
----------------

  NO   OCC          E(Eh)            E(eV)
   0   2.0000     -15.569438      -423.6659
   1   2.0000     -15.569437      -423.6659
   2   2.0000     -15.565735      -423.5652
   3   2.0000     -15.565734      -423.5651
   4   2.0000     -15.562628      -423.4806
   5   2.0000     -15.562628      -423.4806
   6   2.0000     -11.283067      -307.0279
   7   2.0000     -11.283066      -307.0278
   8   2.0000     -11.282492      -307.0122
   9   2.0000     -11.282491      -307.0122
  10   2.0000     -11.276706      -306.8548
  11   2.0000     -11.276706      -306.8548
  12   2.0000     -11.273813      -306.7761
  13   2.0000     -11.273812      -306.7760
  14   2.0000     -11.266410      -306.5746
  15   2.0000     -11.266410      -306.5746
  16   2.0000     -11.254696      -306.2559
  17   2.0000     -11.254695      -306.2558
  18   2.0000      -1.220992       -33.2249
  19   2.0000      -1.218357       -33.1532
  20   2.0000      -1.215910       -33.0866
  21   2.0000      -1.215752       -33.0823
  22   2.0000      -1.211137       -32.9567
  23   2.0000      -1.210906       -32.9504
  24   2.0000      -1.033759       -28.1300
  25   2.0000      -1.030788       -28.0492
  26   2.0000      -1.025004       -27.8918
  27   2.0000      -1.024575       -27.8801
  28   2.0000      -1.019709       -27.7477
  29   2.0000      -1.015164       -27.6240
  30   2.0000      -0.694447       -18.8969
  31   2.0000      -0.688551       -18.7364
  32   2.0000      -0.684897       -18.6370
  33   2.0000      -0.683633       -18.6026
  34   2.0000      -0.678781       -18.4706
  35   2.0000      -0.678445       -18.4614
  36   2.0000      -0.632534       -17.2121
  37   2.0000      -0.628052       -17.0902
  38   2.0000      -0.625045       -17.0083
  39   2.0000      -0.624659       -16.9978
  40   2.0000      -0.616267       -16.7695
  41   2.0000      -0.615592       -16.7511
  42   2.0000      -0.614929       -16.7331
  43   2.0000      -0.613516       -16.6946
  44   2.0000      -0.610794       -16.6205
  45   2.0000      -0.602843       -16.4042
  46   2.0000      -0.599791       -16.3212
  47   2.0000      -0.591449       -16.0941
  48   2.0000      -0.559815       -15.2333
  49   2.0000      -0.557621       -15.1736
  50   2.0000      -0.555891       -15.1266
  51   2.0000      -0.555787       -15.1237
  52   2.0000      -0.550503       -14.9799
  53   2.0000      -0.549862       -14.9625
  54   2.0000      -0.467282       -12.7154
  55   2.0000      -0.466729       -12.7003
  56   2.0000      -0.466390       -12.6911
  57   2.0000      -0.461885       -12.5685
  58   2.0000      -0.460978       -12.5439
  59   2.0000      -0.457094       -12.4382
  60   2.0000      -0.456110       -12.4114
  61   2.0000      -0.455793       -12.4028
  62   2.0000      -0.452240       -12.3061
  63   2.0000      -0.449965       -12.2442
  64   2.0000      -0.449065       -12.2197
  65   2.0000      -0.444671       -12.1001
  66   0.0000       0.124785         3.3956
  67   0.0000       0.140439         3.8215
  68   0.0000       0.147884         4.0241
  69   0.0000       0.154794         4.2122
  70   0.0000       0.161410         4.3922

MULLIKEN ATOMIC CHARGES
-----------------------
   0 C :   -0.299003
   1 H :    0.180668
   2 H :    0.182985
   3 H :    0.173140
   4 C :   -0.084256
   5 N :   -0.154313
   6 C :   -0.258923
   7 H :    0.182813
   8 H :    0.171708
   9 H :    0.205618
  10 C :   -0.088740
  11 N :   -0.214896
  12 C :   -0.298996
  13 H :    0.182983
  14 H :    0.173139
  15 H :    0.180666
  16 C :   -0.084259
  17 N :   -0.154312
  18 C :   -0.258923
  19 H :    0.171708
  20 H :    0.205617
  21 H :    0.182814
  22 C :   -0.088742
  23 N :   -0.214895
  24 C :   -0.293660
  25 H :    0.184389
  26 H :    0.171665
  27 H :    0.182625
  28 C :   -0.078549
  29 N :   -0.163269
  30 C :   -0.293661
  31 H :    0.182625
  32 H :    0.184389
  33 H :    0.171665
  34 C :   -0.078549
  35 N :   -0.163268
Sum of atomic charges:   -0.0000000

LOEWDIN ATOMIC CHARGES
----------------------
   0 C :   -0.288050
   1 H :    0.150846
   2 H :    0.152156
   3 H :    0.146848
   4 C :   -0.204754
   5 N :    0.040916
   6 C :   -0.278990
   7 H :    0.155855
   8 H :    0.153784
   9 H :    0.155733
  10 C :   -0.197531
  11 N :    0.019807
  12 C :   -0.288050
  13 H :    0.152156
  14 H :    0.146848
  15 H :    0.150846
  16 C :   -0.204754
  17 N :    0.040916
  18 C :   -0.278990
  19 H :    0.153784
  20 H :    0.155732
  21 H :    0.155855
  22 C :   -0.197531
  23 N :    0.019808
  24 C :   -0.285055
  25 H :    0.153610
  26 H :    0.146987
  27 H :    0.152620
  28 C :   -0.202907
  29 N :    0.028126
  30 C :   -0.285055
  31 H :    0.152619
  32 H :    0.153610
  33 H :    0.146987
  34 C :   -0.202907
  35 N :    0.028126

  Mayer bond orders larger than 0.100000
B(  0-C ,  1-H ) :   0.9154 B(  0-C ,  2-H ) :   0.9109 B(  0-C ,  3-H ) :   0.9125
B(  0-C ,  4-C ) :   0.8941 B(  4-C ,  5-N ) :   2.7433 B(  6-C ,  7-H ) :   0.9065
B(  6-C ,  8-H ) :   0.9041 B(  6-C ,  9-H ) :   0.9033 B(  6-C , 10-C ) :   0.8985
B( 10-C , 11-N ) :   2.6911 B( 12-C , 13-H ) :   0.9109 B( 12-C , 14-H ) :   0.9125
B( 12-C , 15-H ) :   0.9154 B( 12-C , 16-C ) :   0.8941 B( 16-C , 17-N ) :   2.7433
B( 18-C , 19-H ) :   0.9041 B( 18-C , 20-H ) :   0.9033 B( 18-C , 21-H ) :   0.9065
B( 18-C , 22-C ) :   0.8985 B( 22-C , 23-N ) :   2.6911 B( 24-C , 25-H ) :   0.9143
B( 24-C , 26-H ) :   0.9103 B( 24-C , 27-H ) :   0.9123 B( 24-C , 28-C ) :   0.9000
B( 28-C , 29-N ) :   2.7394 B( 30-C , 31-H ) :   0.9123 B( 30-C , 32-H ) :   0.9143
B( 30-C , 33-H ) :   0.9103 B( 30-C , 34-C ) :   0.9000 B( 34-C , 35-N ) :   2.7394

MP2 TOTAL ENERGY:     -794.956165060 Eh
FINAL SINGLE POINT ENERGY      -794.956165059544

DIPOLE MOMENT
-------------
                                X             Y             Z
Electronic contribution:     -0.00002      -5.10896       0.00001
Nuclear contribution   :      0.00004       7.27878      -0.00001
                        -----------------------------------------
Total Dipole Moment    :      0.00001       2.16982      -0.00000
                        -----------------------------------------
Magnitude (a.u.)       :      2.16982
Magnitude (Debye)      :      5.51525

Rotational constants in cm-1:     0.015416     0.008279     0.007577
Rotational constants in MHz :   462.167732   248.210128   227.141994

                             ****ORCA TERMINATED NORMALLY****
TOTAL RUN TIME: 0 days 0 hours 46 minutes 30 seconds 749 msec
