                         Program Version 4.2.0 -  RELEASE  -
|  1> # 12h2o.su.etal.mol1,2,4,7,9,10
|  2> ! MP2 def2-TZVP EnGrad TightSCF
|  3>
|  4> %pal
|  5>     nprocs 6
|  6> end
|  7>
|  8> %maxcore 8000
|  9>
| 10> %scf
| 11>     ConvForced true
| 12> end
| 13>
| 14> *xyz 0 1
| 15> O  -1.794470000  -0.923410000   2.768350000
| 16> H  -2.338250000  -1.359750000   3.430940000
| 17> H  -0.879480000  -1.303000000   2.865760000
| 18> O   0.923410000  -1.794470000  -2.768350000
| 19> H   1.359750000  -2.338250000  -3.430940000
| 20> H   1.303000000  -0.879480000  -2.865760000
| 21> O  -0.885520000   1.737840000   0.052730000
| 22> H  -1.032320000   2.090180000  -0.841890000
| 23> H  -1.284090000   0.839590000   0.017130000
| 24> O  -1.737840000  -0.885520000  -0.052730000
| 25> H  -2.090180000  -1.032320000   0.841890000
| 26> H  -0.839590000  -1.284090000  -0.017130000
| 27> O   0.741530000  -1.752130000   2.896280000
| 28> H   0.920500000  -2.036450000   1.984040000
| 29> H   1.242140000  -0.921210000   2.984230000
| 30> O  -0.923410000   1.794470000  -2.768350000
| 31> H  -1.359750000   2.338250000  -3.430940000
| 32> H  -1.303000000   0.879480000  -2.865760000
| 33> *
| 34>
| 35>                          ****END OF INPUT****

CARTESIAN COORDINATES (ANGSTROEM)
---------------------------------
  O     -1.794470   -0.923410    2.768350
  H     -2.338250   -1.359750    3.430940
  H     -0.879480   -1.303000    2.865760
  O      0.923410   -1.794470   -2.768350
  H      1.359750   -2.338250   -3.430940
  H      1.303000   -0.879480   -2.865760
  O     -0.885520    1.737840    0.052730
  H     -1.032320    2.090180   -0.841890
  H     -1.284090    0.839590    0.017130
  O     -1.737840   -0.885520   -0.052730
  H     -2.090180   -1.032320    0.841890
  H     -0.839590   -1.284090   -0.017130
  O      0.741530   -1.752130    2.896280
  H      0.920500   -2.036450    1.984040
  H      1.242140   -0.921210    2.984230
  O     -0.923410    1.794470   -2.768350
  H     -1.359750    2.338250   -3.430940
  H     -1.303000    0.879480   -2.865760

 Total Charge           Charge          ....    0
 Multiplicity           Mult            ....    1
 Number of Electrons    NEL             ....   60
 Basis Dimension        Dim             ....  258

ORBITAL ENERGIES
----------------

  NO   OCC          E(Eh)            E(eV)
   0   2.0000     -20.606609      -560.7343
   1   2.0000     -20.572737      -559.8126
   2   2.0000     -20.572245      -559.7992
   3   2.0000     -20.549028      -559.1675
   4   2.0000     -20.543415      -559.0147
   5   2.0000     -20.480407      -557.3002
   6   2.0000      -1.392076       -37.8803
   7   2.0000      -1.350654       -36.7532
   8   2.0000      -1.347517       -36.6678
   9   2.0000      -1.336668       -36.3726
  10   2.0000      -1.323633       -36.0179
  11   2.0000      -1.264935       -34.4206
  12   2.0000      -0.749199       -20.3867
  13   2.0000      -0.718240       -19.5443
  14   2.0000      -0.714813       -19.4511
  15   2.0000      -0.714158       -19.4332
  16   2.0000      -0.695516       -18.9259
  17   2.0000      -0.648976       -17.6595
  18   2.0000      -0.630533       -17.1577
  19   2.0000      -0.592285       -16.1169
  20   2.0000      -0.584291       -15.8994
  21   2.0000      -0.584080       -15.8936
  22   2.0000      -0.566105       -15.4045
  23   2.0000      -0.535749       -14.5785
  24   2.0000      -0.528842       -14.3905
  25   2.0000      -0.515727       -14.0336
  26   2.0000      -0.502462       -13.6727
  27   2.0000      -0.491861       -13.3842
  28   2.0000      -0.475896       -12.9498
  29   2.0000      -0.431795       -11.7497
  30   0.0000       0.091948         2.5020
  31   0.0000       0.114416         3.1134
  32   0.0000       0.139538         3.7970
  33   0.0000       0.162131         4.4118
  34   0.0000       0.168098         4.5742

MULLIKEN ATOMIC CHARGES
-----------------------
   0 O :   -0.727827
   1 H :    0.336488
   2 H :    0.367605
   3 O :   -0.693096
   4 H :    0.341389
   5 H :    0.353571
   6 O :   -0.742229
   7 H :    0.351987
   8 H :    0.345472
   9 O :   -0.696592
  10 H :    0.379505
  11 H :    0.327750
  12 O :   -0.678578
  13 H :    0.355251
  14 H :    0.372536
  15 O :   -0.699481
  16 H :    0.343728
  17 H :    0.362520
Sum of atomic charges:   -0.0000000

LOEWDIN ATOMIC CHARGES
----------------------
   0 O :   -0.335235
   1 H :    0.153995
   2 H :    0.143327
   3 O :   -0.341829
   4 H :    0.159373
   5 H :    0.184231
   6 O :   -0.376269
   7 H :    0.140779
   8 H :    0.136004
   9 O :   -0.300958
  10 H :    0.153154
  11 H :    0.163412
  12 O :   -0.267758
  13 H :    0.172139
  14 H :    0.183076
  15 O :   -0.313617
  16 H :    0.159384
  17 H :    0.186793

  Mayer bond orders larger than 0.100000
B(  0-O ,  1-H ) :   0.8509 B(  0-O ,  2-H ) :   0.7721 B(  3-O ,  4-H ) :   0.8511
B(  3-O ,  5-H ) :   0.8362 B(  6-O ,  7-H ) :   0.8349 B(  6-O ,  8-H ) :   0.8055
B(  9-O , 10-H ) :   0.7948 B(  9-O , 11-H ) :   0.8491 B( 12-O , 13-H ) :   0.8384
B( 12-O , 14-H ) :   0.8277 B( 15-O , 16-H ) :   0.8459 B( 15-O , 17-H ) :   0.8268

MP2 TOTAL ENERGY:     -457.909526159 Eh
FINAL SINGLE POINT ENERGY      -457.909526159234

DIPOLE MOMENT
-------------
                                X             Y             Z
Electronic contribution:      0.08162      -0.10863       0.31252
Nuclear contribution   :      0.87509      -1.13252      -1.31870
                        -----------------------------------------
Total Dipole Moment    :      0.95671      -1.24115      -1.00618
                        -----------------------------------------
Magnitude (a.u.)       :      1.86229
Magnitude (Debye)      :      4.73357

Rotational constants in cm-1:     0.051522     0.024157     0.019063
Rotational constants in MHz :  1544.598008   724.209387   571.481823

                             ****ORCA TERMINATED NORMALLY****
TOTAL RUN TIME: 0 days 0 hours 1 minutes 0 seconds 571 msec
