                         Program Version 4.2.0 -  RELEASE  -
|  1> # 12h2o.su.etal.mol1,5,6,7,10
|  2> ! MP2 def2-TZVP EnGrad TightSCF
|  3>
|  4> %pal
|  5>     nprocs 6
|  6> end
|  7>
|  8> %maxcore 8000
|  9>
| 10> %scf
| 11>     ConvForced true
| 12> end
| 13>
| 14> *xyz 0 1
| 15> O  -1.794470000  -0.923410000   2.768350000
| 16> H  -2.338250000  -1.359750000   3.430940000
| 17> H  -0.879480000  -1.303000000   2.865760000
| 18> O   0.885520000  -1.737840000   0.052730000
| 19> H   1.284090000  -0.839590000   0.017130000
| 20> H   1.032320000  -2.090180000  -0.841890000
| 21> O   1.737840000   0.885520000  -0.052730000
| 22> H   2.090180000   1.032320000   0.841890000
| 23> H   0.839590000   1.284090000  -0.017130000
| 24> O  -1.737840000  -0.885520000  -0.052730000
| 25> H  -2.090180000  -1.032320000   0.841890000
| 26> H  -0.839590000  -1.284090000  -0.017130000
| 27> O  -0.923410000   1.794470000  -2.768350000
| 28> H  -1.359750000   2.338250000  -3.430940000
| 29> H  -1.303000000   0.879480000  -2.865760000
| 30> *
| 31>
| 32>                          ****END OF INPUT****

CARTESIAN COORDINATES (ANGSTROEM)
---------------------------------
  O     -1.794470   -0.923410    2.768350
  H     -2.338250   -1.359750    3.430940
  H     -0.879480   -1.303000    2.865760
  O      0.885520   -1.737840    0.052730
  H      1.284090   -0.839590    0.017130
  H      1.032320   -2.090180   -0.841890
  O      1.737840    0.885520   -0.052730
  H      2.090180    1.032320    0.841890
  H      0.839590    1.284090   -0.017130
  O     -1.737840   -0.885520   -0.052730
  H     -2.090180   -1.032320    0.841890
  H     -0.839590   -1.284090   -0.017130
  O     -0.923410    1.794470   -2.768350
  H     -1.359750    2.338250   -3.430940
  H     -1.303000    0.879480   -2.865760

 Total Charge           Charge          ....    0
 Multiplicity           Mult            ....    1
 Number of Electrons    NEL             ....   50
 Basis Dimension        Dim             ....  215

ORBITAL ENERGIES
----------------

  NO   OCC          E(Eh)            E(eV)
   0   2.0000     -20.587485      -560.2139
   1   2.0000     -20.579214      -559.9889
   2   2.0000     -20.555044      -559.3312
   3   2.0000     -20.550207      -559.1996
   4   2.0000     -20.495292      -557.7052
   5   2.0000      -1.369246       -37.2591
   6   2.0000      -1.357096       -36.9285
   7   2.0000      -1.339579       -36.4518
   8   2.0000      -1.325568       -36.0705
   9   2.0000      -1.279552       -34.8184
  10   2.0000      -0.725013       -19.7286
  11   2.0000      -0.724015       -19.7014
  12   2.0000      -0.709629       -19.3100
  13   2.0000      -0.693701       -18.8766
  14   2.0000      -0.662758       -18.0346
  15   2.0000      -0.613436       -16.6924
  16   2.0000      -0.596094       -16.2205
  17   2.0000      -0.581492       -15.8232
  18   2.0000      -0.562674       -15.3111
  19   2.0000      -0.544630       -14.8201
  20   2.0000      -0.522487       -14.2176
  21   2.0000      -0.511209       -13.9107
  22   2.0000      -0.493613       -13.4319
  23   2.0000      -0.486861       -13.2482
  24   2.0000      -0.446374       -12.1464
  25   0.0000       0.104495         2.8434
  26   0.0000       0.130812         3.5596
  27   0.0000       0.143695         3.9102
  28   0.0000       0.163821         4.4578
  29   0.0000       0.195545         5.3211

MULLIKEN ATOMIC CHARGES
-----------------------
   0 O :   -0.693763
   1 H :    0.346272
   2 H :    0.355275
   3 O :   -0.717154
   4 H :    0.366156
   5 H :    0.349199
   6 O :   -0.689727
   7 H :    0.350335
   8 H :    0.379709
   9 O :   -0.740392
  10 H :    0.357995
  11 H :    0.336483
  12 O :   -0.690798
  13 H :    0.335137
  14 H :    0.355273
Sum of atomic charges:   -0.0000000

LOEWDIN ATOMIC CHARGES
----------------------
   0 O :   -0.311594
   1 H :    0.160484
   2 H :    0.185016
   3 O :   -0.316129
   4 H :    0.144559
   5 H :    0.167233
   6 O :   -0.288429
   7 H :    0.170195
   8 H :    0.187727
   9 O :   -0.374917
  10 H :    0.143385
  11 H :    0.132884
  12 O :   -0.341925
  13 H :    0.156393
  14 H :    0.185119

  Mayer bond orders larger than 0.100000
B(  0-O ,  1-H ) :   0.8449 B(  0-O ,  2-H ) :   0.8334 B(  3-O ,  4-H ) :   0.7782
B(  3-O ,  5-H ) :   0.8436 B(  6-O ,  7-H ) :   0.8415 B(  6-O ,  8-H ) :   0.8152
B(  9-O , 10-H ) :   0.8299 B(  9-O , 11-H ) :   0.8044 B( 12-O , 13-H ) :   0.8550
B( 12-O , 14-H ) :   0.8355

MP2 TOTAL ENERGY:     -381.591807606 Eh
FINAL SINGLE POINT ENERGY      -381.591807605652

DIPOLE MOMENT
-------------
                                X             Y             Z
Electronic contribution:      0.24318       0.29765       0.01421
Nuclear contribution   :      0.08378      -0.53373       0.77428
                        -----------------------------------------
Total Dipole Moment    :      0.32696      -0.23608       0.78849
                        -----------------------------------------
Magnitude (a.u.)       :      0.88564
Magnitude (Debye)      :      2.25111

Rotational constants in cm-1:     0.069518     0.037098     0.030041
Rotational constants in MHz :  2084.098884  1112.183222   900.594931

                             ****ORCA TERMINATED NORMALLY****
TOTAL RUN TIME: 0 days 0 hours 0 minutes 37 seconds 178 msec
