                         Program Version 4.2.0 -  RELEASE  -
|  1> # 12h2o.su.etal.mol1,2,4,5,6,10,11
|  2> ! MP2 def2-TZVP EnGrad TightSCF
|  3>
|  4> %pal
|  5>     nprocs 6
|  6> end
|  7>
|  8> %maxcore 8000
|  9>
| 10> %scf
| 11>     ConvForced true
| 12> end
| 13>
| 14> *xyz 0 1
| 15> O  -1.794470000  -0.923410000   2.768350000
| 16> H  -2.338250000  -1.359750000   3.430940000
| 17> H  -0.879480000  -1.303000000   2.865760000
| 18> O   0.923410000  -1.794470000  -2.768350000
| 19> H   1.359750000  -2.338250000  -3.430940000
| 20> H   1.303000000  -0.879480000  -2.865760000
| 21> O  -0.885520000   1.737840000   0.052730000
| 22> H  -1.032320000   2.090180000  -0.841890000
| 23> H  -1.284090000   0.839590000   0.017130000
| 24> O   0.885520000  -1.737840000   0.052730000
| 25> H   1.284090000  -0.839590000   0.017130000
| 26> H   1.032320000  -2.090180000  -0.841890000
| 27> O   1.737840000   0.885520000  -0.052730000
| 28> H   2.090180000   1.032320000   0.841890000
| 29> H   0.839590000   1.284090000  -0.017130000
| 30> O  -0.923410000   1.794470000  -2.768350000
| 31> H  -1.359750000   2.338250000  -3.430940000
| 32> H  -1.303000000   0.879480000  -2.865760000
| 33> O  -0.741530000   1.752130000   2.896280000
| 34> H  -0.920500000   2.036450000   1.984040000
| 35> H  -1.242140000   0.921210000   2.984230000
| 36> *
| 37>
| 38>                          ****END OF INPUT****

CARTESIAN COORDINATES (ANGSTROEM)
---------------------------------
  O     -1.794470   -0.923410    2.768350
  H     -2.338250   -1.359750    3.430940
  H     -0.879480   -1.303000    2.865760
  O      0.923410   -1.794470   -2.768350
  H      1.359750   -2.338250   -3.430940
  H      1.303000   -0.879480   -2.865760
  O     -0.885520    1.737840    0.052730
  H     -1.032320    2.090180   -0.841890
  H     -1.284090    0.839590    0.017130
  O      0.885520   -1.737840    0.052730
  H      1.284090   -0.839590    0.017130
  H      1.032320   -2.090180   -0.841890
  O      1.737840    0.885520   -0.052730
  H      2.090180    1.032320    0.841890
  H      0.839590    1.284090   -0.017130
  O     -0.923410    1.794470   -2.768350
  H     -1.359750    2.338250   -3.430940
  H     -1.303000    0.879480   -2.865760
  O     -0.741530    1.752130    2.896280
  H     -0.920500    2.036450    1.984040
  H     -1.242140    0.921210    2.984230

 Total Charge           Charge          ....    0
 Multiplicity           Mult            ....    1
 Number of Electrons    NEL             ....   70
 Basis Dimension        Dim             ....  301

ORBITAL ENERGIES
----------------

  NO   OCC          E(Eh)            E(eV)
   0   2.0000     -20.605281      -560.6982
   1   2.0000     -20.583540      -560.1066
   2   2.0000     -20.578874      -559.9796
   3   2.0000     -20.572937      -559.8181
   4   2.0000     -20.544186      -559.0357
   5   2.0000     -20.503121      -557.9183
   6   2.0000     -20.495723      -557.7170
   7   2.0000      -1.384198       -37.6659
   8   2.0000      -1.364530       -37.1307
   9   2.0000      -1.361416       -37.0460
  10   2.0000      -1.350632       -36.7526
  11   2.0000      -1.329310       -36.1724
  12   2.0000      -1.288404       -35.0593
  13   2.0000      -1.279738       -34.8234
  14   2.0000      -0.750347       -20.4180
  15   2.0000      -0.728290       -19.8178
  16   2.0000      -0.727418       -19.7941
  17   2.0000      -0.717573       -19.5262
  18   2.0000      -0.699100       -19.0235
  19   2.0000      -0.667058       -18.1516
  20   2.0000      -0.662249       -18.0207
  21   2.0000      -0.627779       -17.0827
  22   2.0000      -0.606095       -16.4927
  23   2.0000      -0.599217       -16.3055
  24   2.0000      -0.588115       -16.0034
  25   2.0000      -0.576330       -15.6827
  26   2.0000      -0.548405       -14.9229
  27   2.0000      -0.545520       -14.8444
  28   2.0000      -0.531132       -14.4528
  29   2.0000      -0.517594       -14.0844
  30   2.0000      -0.510659       -13.8957
  31   2.0000      -0.504841       -13.7374
  32   2.0000      -0.480419       -13.0729
  33   2.0000      -0.453109       -12.3297
  34   2.0000      -0.446954       -12.1622
  35   0.0000       0.088774         2.4157
  36   0.0000       0.125659         3.4194
  37   0.0000       0.127597         3.4721
  38   0.0000       0.162457         4.4207
  39   0.0000       0.171351         4.6627

MULLIKEN ATOMIC CHARGES
-----------------------
   0 O :   -0.701018
   1 H :    0.347925
   2 H :    0.372662
   3 O :   -0.702090
   4 H :    0.347312
   5 H :    0.362417
   6 O :   -0.729235
   7 H :    0.384593
   8 H :    0.362301
   9 O :   -0.744029
  10 H :    0.339664
  11 H :    0.356420
  12 O :   -0.721492
  13 H :    0.352509
  14 H :    0.375280
  15 O :   -0.702039
  16 H :    0.357335
  17 H :    0.362285
  18 O :   -0.728428
  19 H :    0.362470
  20 H :    0.345159
Sum of atomic charges:   -0.0000000

LOEWDIN ATOMIC CHARGES
----------------------
   0 O :   -0.313135
   1 H :    0.161437
   2 H :    0.192538
   3 O :   -0.314284
   4 H :    0.161128
   5 H :    0.186829
   6 O :   -0.282344
   7 H :    0.155666
   8 H :    0.178546
   9 O :   -0.376853
  10 H :    0.133945
  11 H :    0.142546
  12 O :   -0.314548
  13 H :    0.168242
  14 H :    0.145427
  15 O :   -0.310842
  16 H :    0.166194
  17 H :    0.187992
  18 O :   -0.356446
  19 H :    0.146031
  20 H :    0.141929

  Mayer bond orders larger than 0.100000
B(  0-O ,  1-H ) :   0.8442 B(  0-O ,  2-H ) :   0.8202 B(  3-O ,  4-H ) :   0.8440
B(  3-O ,  5-H ) :   0.8269 B(  6-O ,  7-H ) :   0.7953 B(  6-O ,  8-H ) :   0.8232
B(  9-O , 10-H ) :   0.7977 B(  9-O , 11-H ) :   0.8315 B( 12-O , 13-H ) :   0.8399
B( 12-O , 14-H ) :   0.7795 B( 15-O , 16-H ) :   0.8389 B( 15-O , 17-H ) :   0.8273
B( 18-O , 19-H ) :   0.8300 B( 18-O , 20-H ) :   0.8256

MP2 TOTAL ENERGY:     -534.241887132 Eh
FINAL SINGLE POINT ENERGY      -534.241887131732

DIPOLE MOMENT
-------------
                                X             Y             Z
Electronic contribution:     -0.11696       0.25565      -0.16326
Nuclear contribution   :     -0.71107      -0.68017      -2.09298
                        -----------------------------------------
Total Dipole Moment    :     -0.82803      -0.42452      -2.25624
                        -----------------------------------------
Magnitude (a.u.)       :      2.44059
Magnitude (Debye)      :      6.20348

Rotational constants in cm-1:     0.038546     0.022465     0.017880
Rotational constants in MHz :  1155.572915   673.481875   536.040213

                             ****ORCA TERMINATED NORMALLY****
TOTAL RUN TIME: 0 days 0 hours 1 minutes 49 seconds 19 msec
