                         Program Version 4.2.0 -  RELEASE  -
|  1> # 12h2o.su.etal.mol5,7,8,9,10
|  2> ! MP2 def2-TZVP EnGrad TightSCF
|  3>
|  4> %pal
|  5>     nprocs 6
|  6> end
|  7>
|  8> %maxcore 8000
|  9>
| 10> %scf
| 11>     ConvForced true
| 12> end
| 13>
| 14> *xyz 0 1
| 15> O   0.885520000  -1.737840000   0.052730000
| 16> H   1.284090000  -0.839590000   0.017130000
| 17> H   1.032320000  -2.090180000  -0.841890000
| 18> O  -1.737840000  -0.885520000  -0.052730000
| 19> H  -2.090180000  -1.032320000   0.841890000
| 20> H  -0.839590000  -1.284090000  -0.017130000
| 21> O   1.752130000   0.741530000  -2.896280000
| 22> H   2.036450000   0.920500000  -1.984040000
| 23> H   0.921210000   1.242140000  -2.984230000
| 24> O   0.741530000  -1.752130000   2.896280000
| 25> H   0.920500000  -2.036450000   1.984040000
| 26> H   1.242140000  -0.921210000   2.984230000
| 27> O  -0.923410000   1.794470000  -2.768350000
| 28> H  -1.359750000   2.338250000  -3.430940000
| 29> H  -1.303000000   0.879480000  -2.865760000
| 30> *
| 31>
| 32>                          ****END OF INPUT****

CARTESIAN COORDINATES (ANGSTROEM)
---------------------------------
  O      0.885520   -1.737840    0.052730
  H      1.284090   -0.839590    0.017130
  H      1.032320   -2.090180   -0.841890
  O     -1.737840   -0.885520   -0.052730
  H     -2.090180   -1.032320    0.841890
  H     -0.839590   -1.284090   -0.017130
  O      1.752130    0.741530   -2.896280
  H      2.036450    0.920500   -1.984040
  H      0.921210    1.242140   -2.984230
  O      0.741530   -1.752130    2.896280
  H      0.920500   -2.036450    1.984040
  H      1.242140   -0.921210    2.984230
  O     -0.923410    1.794470   -2.768350
  H     -1.359750    2.338250   -3.430940
  H     -1.303000    0.879480   -2.865760

 Total Charge           Charge          ....    0
 Multiplicity           Mult            ....    1
 Number of Electrons    NEL             ....   50
 Basis Dimension        Dim             ....  215

ORBITAL ENERGIES
----------------

  NO   OCC          E(Eh)            E(eV)
   0   2.0000     -20.619385      -561.0820
   1   2.0000     -20.587357      -560.2105
   2   2.0000     -20.551352      -559.2307
   3   2.0000     -20.547994      -559.1393
   4   2.0000     -20.534179      -558.7634
   5   2.0000      -1.402162       -38.1548
   6   2.0000      -1.365319       -37.1522
   7   2.0000      -1.332963       -36.2718
   8   2.0000      -1.329847       -36.1870
   9   2.0000      -1.315450       -35.7952
  10   2.0000      -0.760860       -20.7041
  11   2.0000      -0.732628       -19.9358
  12   2.0000      -0.703269       -19.1369
  13   2.0000      -0.700557       -19.0631
  14   2.0000      -0.692845       -18.8533
  15   2.0000      -0.638266       -17.3681
  16   2.0000      -0.607892       -16.5416
  17   2.0000      -0.583385       -15.8747
  18   2.0000      -0.570477       -15.5235
  19   2.0000      -0.561330       -15.2746
  20   2.0000      -0.536321       -14.5940
  21   2.0000      -0.527227       -14.3466
  22   2.0000      -0.498363       -13.5611
  23   2.0000      -0.494103       -13.4452
  24   2.0000      -0.482292       -13.1238
  25   0.0000       0.081248         2.2109
  26   0.0000       0.121760         3.3133
  27   0.0000       0.147998         4.0272
  28   0.0000       0.151861         4.1324
  29   0.0000       0.178516         4.8577

MULLIKEN ATOMIC CHARGES
-----------------------
   0 O :   -0.705614
   1 H :    0.353857
   2 H :    0.376428
   3 O :   -0.719529
   4 H :    0.338886
   5 H :    0.351566
   6 O :   -0.700400
   7 H :    0.316903
   8 H :    0.364292
   9 O :   -0.689180
  10 H :    0.367521
  11 H :    0.322353
  12 O :   -0.698063
  13 H :    0.351900
  14 H :    0.369079
Sum of atomic charges:   -0.0000000

LOEWDIN ATOMIC CHARGES
----------------------
   0 O :   -0.274996
   1 H :    0.177212
   2 H :    0.180494
   3 O :   -0.362639
   4 H :    0.163275
   5 H :    0.139381
   6 O :   -0.344989
   7 H :    0.152979
   8 H :    0.150012
   9 O :   -0.335172
  10 H :    0.150553
  11 H :    0.159645
  12 O :   -0.310611
  13 H :    0.163623
  14 H :    0.191234

  Mayer bond orders larger than 0.100000
B(  0-O ,  1-H ) :   0.8297 B(  0-O ,  2-H ) :   0.8228 B(  3-O ,  4-H ) :   0.8516
B(  3-O ,  5-H ) :   0.8105 B(  6-O ,  7-H ) :   0.8639 B(  6-O ,  8-H ) :   0.8080
B(  9-O , 10-H ) :   0.8253 B(  9-O , 11-H ) :   0.8611 B( 12-O , 13-H ) :   0.8418
B( 12-O , 14-H ) :   0.8231

MP2 TOTAL ENERGY:     -381.588399246 Eh
FINAL SINGLE POINT ENERGY      -381.588399245809

DIPOLE MOMENT
-------------
                                X             Y             Z
Electronic contribution:     -0.07539      -0.12758      -0.08044
Nuclear contribution   :      0.33988       0.71209      -0.63259
                        -----------------------------------------
Total Dipole Moment    :      0.26449       0.58451      -0.71303
                        -----------------------------------------
Magnitude (a.u.)       :      0.95918
Magnitude (Debye)      :      2.43804

Rotational constants in cm-1:     0.093167     0.028628     0.023754
Rotational constants in MHz :  2793.061946   858.234057   712.121657

                             ****ORCA TERMINATED NORMALLY****
TOTAL RUN TIME: 0 days 0 hours 0 minutes 27 seconds 407 msec
