                         Program Version 4.2.0 -  RELEASE  -
|  1> # 12mecn.remya.etal.2.mol8,10,11
|  2> ! MP2 def2-TZVP EnGrad TightSCF
|  3>
|  4> %pal
|  5>     nprocs 6
|  6> end
|  7>
|  8> %maxcore 8000
|  9>
| 10> %scf
| 11>     ConvForced true
| 12> end
| 13>
| 14> *xyz 0 1
| 15> C   1.912641000  -2.468050000  -1.750510000
| 16> H   2.876947000  -2.793500000  -2.151200000
| 17> H   1.688016000  -1.463720000  -2.122170000
| 18> H   1.123460000  -3.154780000  -2.069590000
| 19> C   1.977850000  -2.444240000  -0.306900000
| 20> N   2.036566000  -2.426130000   0.858249000
| 21> C   4.602033000   0.321019000  -1.784800000
| 22> H   4.827650000  -0.662160000  -2.207910000
| 23> H   5.320558000   1.057980000  -2.148500000
| 24> H   3.601982000   0.643751000  -2.087520000
| 25> C   4.654967000   0.244048000  -0.343060000
| 26> N   4.691648000   0.166590000   0.820757000
| 27> C   4.214163000   3.378139000   1.593627000
| 28> H   3.242643000   3.657109000   2.012358000
| 29> H   4.969258000   4.086643000   1.941290000
| 30> H   4.482966000   2.372549000   1.931698000
| 31> C   4.130759000   3.388436000   0.150192000
| 32> N   4.050180000   3.381449000  -1.013420000
| 33> *
| 34>
| 35>                          ****END OF INPUT****

CARTESIAN COORDINATES (ANGSTROEM)
---------------------------------
  C      1.912641   -2.468050   -1.750510
  H      2.876947   -2.793500   -2.151200
  H      1.688016   -1.463720   -2.122170
  H      1.123460   -3.154780   -2.069590
  C      1.977850   -2.444240   -0.306900
  N      2.036566   -2.426130    0.858249
  C      4.602033    0.321019   -1.784800
  H      4.827650   -0.662160   -2.207910
  H      5.320558    1.057980   -2.148500
  H      3.601982    0.643751   -2.087520
  C      4.654967    0.244048   -0.343060
  N      4.691648    0.166590    0.820757
  C      4.214163    3.378139    1.593627
  H      3.242643    3.657109    2.012358
  H      4.969258    4.086643    1.941290
  H      4.482966    2.372549    1.931698
  C      4.130759    3.388436    0.150192
  N      4.050180    3.381449   -1.013420

 Total Charge           Charge          ....    0
 Multiplicity           Mult            ....    1
 Number of Electrons    NEL             ....   66
 Basis Dimension        Dim             ....  333

ORBITAL ENERGIES
----------------

  NO   OCC          E(Eh)            E(eV)
   0   2.0000     -15.570988      -423.7081
   1   2.0000     -15.570821      -423.7036
   2   2.0000     -15.569046      -423.6553
   3   2.0000     -11.287747      -307.1552
   4   2.0000     -11.282891      -307.0231
   5   2.0000     -11.279366      -306.9272
   6   2.0000     -11.277188      -306.8679
   7   2.0000     -11.276337      -306.8447
   8   2.0000     -11.270114      -306.6754
   9   2.0000      -1.217468       -33.1290
  10   2.0000      -1.212169       -32.9848
  11   2.0000      -1.211043       -32.9542
  12   2.0000      -1.045586       -28.4518
  13   2.0000      -1.038498       -28.2590
  14   2.0000      -1.032990       -28.1091
  15   2.0000      -0.700922       -19.0731
  16   2.0000      -0.695817       -18.9341
  17   2.0000      -0.690777       -18.7970
  18   2.0000      -0.638932       -17.3862
  19   2.0000      -0.635011       -17.2795
  20   2.0000      -0.631343       -17.1797
  21   2.0000      -0.622134       -16.9291
  22   2.0000      -0.619095       -16.8464
  23   2.0000      -0.615997       -16.7621
  24   2.0000      -0.558616       -15.2007
  25   2.0000      -0.554294       -15.0831
  26   2.0000      -0.551552       -15.0085
  27   2.0000      -0.463420       -12.6103
  28   2.0000      -0.460832       -12.5399
  29   2.0000      -0.458332       -12.4719
  30   2.0000      -0.455262       -12.3883
  31   2.0000      -0.451858       -12.2957
  32   2.0000      -0.446619       -12.1531
  33   0.0000       0.102626         2.7926
  34   0.0000       0.135141         3.6774
  35   0.0000       0.149604         4.0709
  36   0.0000       0.156955         4.2710
  37   0.0000       0.162271         4.4156

MULLIKEN ATOMIC CHARGES
-----------------------
   0 C :   -0.281703
   1 H :    0.166227
   2 H :    0.166539
   3 H :    0.181534
   4 C :   -0.155184
   5 N :   -0.077390
   6 C :   -0.263987
   7 H :    0.163473
   8 H :    0.189307
   9 H :    0.169615
  10 C :   -0.122566
  11 N :   -0.135425
  12 C :   -0.286749
  13 H :    0.167021
  14 H :    0.165935
  15 H :    0.208290
  16 C :   -0.112169
  17 N :   -0.142767
Sum of atomic charges:   -0.0000000

LOEWDIN ATOMIC CHARGES
----------------------
   0 C :   -0.287398
   1 H :    0.150201
   2 H :    0.150160
   3 H :    0.153276
   4 C :   -0.224050
   5 N :    0.057528
   6 C :   -0.288960
   7 H :    0.146459
   8 H :    0.156715
   9 H :    0.153872
  10 C :   -0.214761
  11 N :    0.043409
  12 C :   -0.281581
  13 H :    0.153207
  14 H :    0.149934
  15 H :    0.158451
  16 C :   -0.208465
  17 N :    0.032004

  Mayer bond orders larger than 0.100000
B(  0-C ,  1-H ) :   0.9220 B(  0-C ,  2-H ) :   0.9199 B(  0-C ,  3-H ) :   0.9109
B(  0-C ,  4-C ) :   0.8978 B(  4-C ,  5-N ) :   2.8289 B(  6-C ,  7-H ) :   0.9141
B(  6-C ,  8-H ) :   0.9055 B(  6-C ,  9-H ) :   0.9202 B(  6-C , 10-C ) :   0.9064
B( 10-C , 11-N ) :   2.7518 B( 12-C , 13-H ) :   0.9141 B( 12-C , 14-H ) :   0.9162
B( 12-C , 15-H ) :   0.9005 B( 12-C , 16-C ) :   0.9007 B( 16-C , 17-N ) :   2.7912

MP2 TOTAL ENERGY:     -397.458166337 Eh
FINAL SINGLE POINT ENERGY      -397.458166336991

DIPOLE MOMENT
-------------
                                X             Y             Z
Electronic contribution:      0.09808      -0.12242       3.25745
Nuclear contribution   :     -0.12215       0.18376      -4.61938
                        -----------------------------------------
Total Dipole Moment    :     -0.02407       0.06134      -1.36192
                        -----------------------------------------
Magnitude (a.u.)       :      1.36352
Magnitude (Debye)      :      3.46578

Rotational constants in cm-1:     0.072029     0.019011     0.017213
Rotational constants in MHz :  2159.381376   569.924749   516.032477

                             ****ORCA TERMINATED NORMALLY****
TOTAL RUN TIME: 0 days 0 hours 3 minutes 40 seconds 820 msec
