                         Program Version 4.2.0 -  RELEASE  -
|  1> # 12h2o.su.etal.mol2,7,8,9
|  2> ! MP2 def2-TZVP EnGrad TightSCF
|  3>
|  4> %pal
|  5>     nprocs 6
|  6> end
|  7>
|  8> %maxcore 8000
|  9>
| 10> %scf
| 11>     ConvForced true
| 12> end
| 13>
| 14> *xyz 0 1
| 15> O   0.923410000  -1.794470000  -2.768350000
| 16> H   1.359750000  -2.338250000  -3.430940000
| 17> H   1.303000000  -0.879480000  -2.865760000
| 18> O  -1.737840000  -0.885520000  -0.052730000
| 19> H  -2.090180000  -1.032320000   0.841890000
| 20> H  -0.839590000  -1.284090000  -0.017130000
| 21> O   1.752130000   0.741530000  -2.896280000
| 22> H   2.036450000   0.920500000  -1.984040000
| 23> H   0.921210000   1.242140000  -2.984230000
| 24> O   0.741530000  -1.752130000   2.896280000
| 25> H   0.920500000  -2.036450000   1.984040000
| 26> H   1.242140000  -0.921210000   2.984230000
| 27> *
| 28>
| 29>                          ****END OF INPUT****

CARTESIAN COORDINATES (ANGSTROEM)
---------------------------------
  O      0.923410   -1.794470   -2.768350
  H      1.359750   -2.338250   -3.430940
  H      1.303000   -0.879480   -2.865760
  O     -1.737840   -0.885520   -0.052730
  H     -2.090180   -1.032320    0.841890
  H     -0.839590   -1.284090   -0.017130
  O      1.752130    0.741530   -2.896280
  H      2.036450    0.920500   -1.984040
  H      0.921210    1.242140   -2.984230
  O      0.741530   -1.752130    2.896280
  H      0.920500   -2.036450    1.984040
  H      1.242140   -0.921210    2.984230

 Total Charge           Charge          ....    0
 Multiplicity           Mult            ....    1
 Number of Electrons    NEL             ....   40
 Basis Dimension        Dim             ....  172

ORBITAL ENERGIES
----------------

  NO   OCC          E(Eh)            E(eV)
   0   2.0000     -20.602789      -560.6304
   1   2.0000     -20.574454      -559.8594
   2   2.0000     -20.554786      -559.3242
   3   2.0000     -20.524302      -558.4946
   4   2.0000      -1.388053       -37.7708
   5   2.0000      -1.353502       -36.8307
   6   2.0000      -1.330641       -36.2086
   7   2.0000      -1.306548       -35.5530
   8   2.0000      -0.745567       -20.2879
   9   2.0000      -0.716269       -19.4907
  10   2.0000      -0.697474       -18.9792
  11   2.0000      -0.692431       -18.8420
  12   2.0000      -0.623008       -16.9529
  13   2.0000      -0.590712       -16.0741
  14   2.0000      -0.570333       -15.5196
  15   2.0000      -0.563974       -15.3465
  16   2.0000      -0.520501       -14.1636
  17   2.0000      -0.518012       -14.0958
  18   2.0000      -0.497689       -13.5428
  19   2.0000      -0.474596       -12.9144
  20   0.0000       0.090876         2.4729
  21   0.0000       0.115403         3.1403
  22   0.0000       0.160378         4.3641
  23   0.0000       0.172447         4.6925
  24   0.0000       0.178182         4.8486

MULLIKEN ATOMIC CHARGES
-----------------------
   0 O :   -0.731086
   1 H :    0.327086
   2 H :    0.363532
   3 O :   -0.676597
   4 H :    0.338003
   5 H :    0.333419
   6 O :   -0.677211
   7 H :    0.354878
   8 H :    0.365963
   9 O :   -0.670385
  10 H :    0.333615
  11 H :    0.338783
Sum of atomic charges:   -0.0000000

LOEWDIN ATOMIC CHARGES
----------------------
   0 O :   -0.371685
   1 H :    0.149922
   2 H :    0.141355
   3 O :   -0.336466
   4 H :    0.164668
   5 H :    0.167510
   6 O :   -0.270313
   7 H :    0.173466
   8 H :    0.179849
   9 O :   -0.328019
  10 H :    0.162086
  11 H :    0.167629

  Mayer bond orders larger than 0.100000
B(  0-O ,  1-H ) :   0.8594 B(  0-O ,  2-H ) :   0.7882 B(  3-O ,  4-H ) :   0.8515
B(  3-O ,  5-H ) :   0.8492 B(  6-O ,  7-H ) :   0.8393 B(  6-O ,  8-H ) :   0.8320
B(  9-O , 10-H ) :   0.8531 B(  9-O , 11-H ) :   0.8517

MP2 TOTAL ENERGY:     -305.261060631 Eh
FINAL SINGLE POINT ENERGY      -305.261060631371

DIPOLE MOMENT
-------------
                                X             Y             Z
Electronic contribution:     -0.12238       0.15804      -0.04409
Nuclear contribution   :      1.24423       0.87566       0.14168
                        -----------------------------------------
Total Dipole Moment    :      1.12185       1.03370       0.09759
                        -----------------------------------------
Magnitude (a.u.)       :      1.52859
Magnitude (Debye)      :      3.88537

Rotational constants in cm-1:     0.104797     0.033725     0.030884
Rotational constants in MHz :  3141.732197  1011.048603   925.878465

                             ****ORCA TERMINATED NORMALLY****
TOTAL RUN TIME: 0 days 0 hours 0 minutes 14 seconds 904 msec
