                         Program Version 4.2.0 -  RELEASE  -
|  1> # 12h2o.su.etal.mol0,1,2,3,4,6,9
|  2> ! MP2 def2-TZVP EnGrad TightSCF
|  3>
|  4> %pal
|  5>     nprocs 6
|  6> end
|  7>
|  8> %maxcore 8000
|  9>
| 10> %scf
| 11>     ConvForced true
| 12> end
| 13>
| 14> *xyz 0 1
| 15> O   1.794470000   0.923410000   2.768350000
| 16> H   2.338250000   1.359750000   3.430940000
| 17> H   0.879480000   1.303000000   2.865760000
| 18> O  -1.794470000  -0.923410000   2.768350000
| 19> H  -2.338250000  -1.359750000   3.430940000
| 20> H  -0.879480000  -1.303000000   2.865760000
| 21> O   0.923410000  -1.794470000  -2.768350000
| 22> H   1.359750000  -2.338250000  -3.430940000
| 23> H   1.303000000  -0.879480000  -2.865760000
| 24> O  -1.752130000  -0.741530000  -2.896280000
| 25> H  -2.036450000  -0.920500000  -1.984040000
| 26> H  -0.921210000  -1.242140000  -2.984230000
| 27> O  -0.885520000   1.737840000   0.052730000
| 28> H  -1.032320000   2.090180000  -0.841890000
| 29> H  -1.284090000   0.839590000   0.017130000
| 30> O   1.737840000   0.885520000  -0.052730000
| 31> H   2.090180000   1.032320000   0.841890000
| 32> H   0.839590000   1.284090000  -0.017130000
| 33> O   0.741530000  -1.752130000   2.896280000
| 34> H   0.920500000  -2.036450000   1.984040000
| 35> H   1.242140000  -0.921210000   2.984230000
| 36> *
| 37>
| 38>                          ****END OF INPUT****

CARTESIAN COORDINATES (ANGSTROEM)
---------------------------------
  O      1.794470    0.923410    2.768350
  H      2.338250    1.359750    3.430940
  H      0.879480    1.303000    2.865760
  O     -1.794470   -0.923410    2.768350
  H     -2.338250   -1.359750    3.430940
  H     -0.879480   -1.303000    2.865760
  O      0.923410   -1.794470   -2.768350
  H      1.359750   -2.338250   -3.430940
  H      1.303000   -0.879480   -2.865760
  O     -1.752130   -0.741530   -2.896280
  H     -2.036450   -0.920500   -1.984040
  H     -0.921210   -1.242140   -2.984230
  O     -0.885520    1.737840    0.052730
  H     -1.032320    2.090180   -0.841890
  H     -1.284090    0.839590    0.017130
  O      1.737840    0.885520   -0.052730
  H      2.090180    1.032320    0.841890
  H      0.839590    1.284090   -0.017130
  O      0.741530   -1.752130    2.896280
  H      0.920500   -2.036450    1.984040
  H      1.242140   -0.921210    2.984230

 Total Charge           Charge          ....    0
 Multiplicity           Mult            ....    1
 Number of Electrons    NEL             ....   70
 Basis Dimension        Dim             ....  301

ORBITAL ENERGIES
----------------

  NO   OCC          E(Eh)            E(eV)
   0   2.0000     -20.610097      -560.8292
   1   2.0000     -20.583783      -560.1132
   2   2.0000     -20.581604      -560.0539
   3   2.0000     -20.569434      -559.7228
   4   2.0000     -20.538306      -558.8757
   5   2.0000     -20.522294      -558.4400
   6   2.0000     -20.512443      -558.1720
   7   2.0000      -1.390715       -37.8433
   8   2.0000      -1.364386       -37.1268
   9   2.0000      -1.359433       -36.9920
  10   2.0000      -1.358033       -36.9539
  11   2.0000      -1.320198       -35.9244
  12   2.0000      -1.303970       -35.4828
  13   2.0000      -1.296750       -35.2864
  14   2.0000      -0.756274       -20.5793
  15   2.0000      -0.726505       -19.7692
  16   2.0000      -0.722184       -19.6516
  17   2.0000      -0.720232       -19.5985
  18   2.0000      -0.691182       -18.8080
  19   2.0000      -0.688547       -18.7363
  20   2.0000      -0.681678       -18.5494
  21   2.0000      -0.631763       -17.1912
  22   2.0000      -0.607428       -16.5290
  23   2.0000      -0.600856       -16.3501
  24   2.0000      -0.596550       -16.2329
  25   2.0000      -0.566849       -15.4247
  26   2.0000      -0.559605       -15.2276
  27   2.0000      -0.549649       -14.9567
  28   2.0000      -0.535551       -14.5731
  29   2.0000      -0.520678       -14.1684
  30   2.0000      -0.508036       -13.8244
  31   2.0000      -0.502995       -13.6872
  32   2.0000      -0.485515       -13.2115
  33   2.0000      -0.473125       -12.8744
  34   2.0000      -0.463197       -12.6042
  35   0.0000       0.093546         2.5455
  36   0.0000       0.113656         3.0927
  37   0.0000       0.134719         3.6659
  38   0.0000       0.154064         4.1923
  39   0.0000       0.173671         4.7258

MULLIKEN ATOMIC CHARGES
-----------------------
   0 O :   -0.721244
   1 H :    0.362472
   2 H :    0.382598
   3 O :   -0.741551
   4 H :    0.327546
   5 H :    0.365623
   6 O :   -0.698699
   7 H :    0.349620
   8 H :    0.370418
   9 O :   -0.704802
  10 H :    0.324495
  11 H :    0.361233
  12 O :   -0.688947
  13 H :    0.359815
  14 H :    0.361561
  15 O :   -0.735971
  16 H :    0.355004
  17 H :    0.340950
  18 O :   -0.703466
  19 H :    0.359849
  20 H :    0.373496
Sum of atomic charges:   -0.0000000

LOEWDIN ATOMIC CHARGES
----------------------
   0 O :   -0.287743
   1 H :    0.167240
   2 H :    0.196011
   3 O :   -0.377581
   4 H :    0.149849
   5 H :    0.141008
   6 O :   -0.311362
   7 H :    0.162450
   8 H :    0.191669
   9 O :   -0.346657
  10 H :    0.156238
  11 H :    0.148806
  12 O :   -0.291786
  13 H :    0.173700
  14 H :    0.179250
  15 O :   -0.371992
  16 H :    0.141555
  17 H :    0.135755
  18 O :   -0.282803
  19 H :    0.173733
  20 H :    0.152658

  Mayer bond orders larger than 0.100000
B(  0-O ,  1-H ) :   0.8327 B(  0-O ,  2-H ) :   0.8107 B(  3-O ,  4-H ) :   0.8591
B(  3-O ,  5-H ) :   0.7735 B(  6-O ,  7-H ) :   0.8430 B(  6-O ,  8-H ) :   0.8219
B(  9-O , 10-H ) :   0.8593 B(  9-O , 11-H ) :   0.8117 B( 12-O , 13-H ) :   0.8353
B( 12-O , 14-H ) :   0.8266 B( 15-O , 16-H ) :   0.8345 B( 15-O , 17-H ) :   0.8044
B( 18-O , 19-H ) :   0.8349 B( 18-O , 20-H ) :   0.8033

MP2 TOTAL ENERGY:     -534.238163786 Eh
FINAL SINGLE POINT ENERGY      -534.238163786465

DIPOLE MOMENT
-------------
                                X             Y             Z
Electronic contribution:      0.23374       0.05177       0.01129
Nuclear contribution   :      0.79143       0.19784       0.63259
                        -----------------------------------------
Total Dipole Moment    :      1.02518       0.24961       0.64388
                        -----------------------------------------
Magnitude (a.u.)       :      1.23607
Magnitude (Debye)      :      3.14184

Rotational constants in cm-1:     0.036192     0.018264     0.017067
Rotational constants in MHz :  1085.001021   547.554839   511.663004

                             ****ORCA TERMINATED NORMALLY****
TOTAL RUN TIME: 0 days 0 hours 1 minutes 55 seconds 240 msec
