                         Program Version 3.0.3 - RELEASE   -
|  1> ! B3LYP Def2-TZVP def2-TZVP/J RIJCOSX TightSCF Grid4 D3BJ
|  2>
|  3> %pal nprocs 12 end
|  4>
|  5> %scf
|  6>         maxiter 400
|  7> end
|  8>
|  9> * xyz  0  1
| 10> O  3.069307	0.853997	-3.052739
| 11> H  3.569637	1.357390	-3.720591
| 12> H  2.411056	0.237346	-3.584059
| 13> O  -2.207613	0.533820	-0.375330
| 14> H  -3.058659	0.761286	0.100572
| 15> H  -1.547974	1.205259	0.010676
| 16> O  -0.430829	-0.099117	-2.265419
| 17> H  -1.303720	0.131392	-1.843630
| 18> H  0.216715	0.575608	-1.866213
| 19> O  1.401540	-0.744474	-4.153757
| 20> H  1.682672	-1.599812	-3.720257
| 21> H  0.546173	-0.526820	-3.694459
| 22> O  2.299488	-2.764341	-2.557466
| 23> H  3.057637	-2.188300	-2.123140
| 24> H  2.718773	-3.595160	-2.846242
| 25> O  -3.993759	1.127441	1.503420
| 26> H  -4.891563	1.506125	1.477407
| 27> H  -3.381897	1.860928	1.932287
| 28> O  0.404903	0.109972	2.262593
| 29> H  -0.024555	0.335073	3.138784
| 30> H  -0.241918	-0.566151	1.862063
| 31> O  -3.058696	-0.855747	3.117800
| 32> H  -2.516234	-1.358521	2.450996
| 33> H  -3.583357	-0.223920	2.547424
| 34> O  -1.370956	0.780724	4.127829
| 35> H  -2.072438	0.078218	3.792437
| 36> H  -1.377544	0.725123	5.101100
| 37> O  1.362027	1.481580	-1.116185
| 38> H  2.045304	1.539099	-1.846223
| 39> H  1.742769	0.761240	-0.506386
| 40> O  -2.340671	2.777833	2.548060
| 41> H  -1.607470	2.825782	1.875973
| 42> H  -1.953442	2.197892	3.264759
| 43> O  -1.355894	-1.492585	1.103591
| 44> H  -0.802224	-2.051136	0.491288
| 45> H  -1.734008	-0.774090	0.490583
| 46> O  -0.417566	2.126688	0.754668
| 47> H  -0.035655	1.407427	1.364393
| 48> H  0.278268	2.235417	0.048184
| 49> O  4.012234	-1.179456	-1.502661
| 50> H  3.584421	-0.939643	-0.636251
| 51> H  3.851751	-0.368565	-2.065005
| 52> O  2.192484	-0.527508	0.391845
| 53> H  1.815059	-0.315788	1.289938
| 54> H  1.537071	-1.201982	0.003922
| 55> O  0.427312	-2.120195	-0.783322
| 56> H  1.030544	-2.635811	-1.393942
| 57> H  0.048012	-1.402297	-1.395664
| 58> **                         ****END OF INPUT****

CARTESIAN COORDINATES (ANGSTROEM)
---------------------------------
  O      3.069307    0.853997   -3.052739
  H      3.569637    1.357390   -3.720591
  H      2.411056    0.237346   -3.584059
  O     -2.207613    0.533820   -0.375330
  H     -3.058659    0.761286    0.100572
  H     -1.547974    1.205259    0.010676
  O     -0.430829   -0.099117   -2.265419
  H     -1.303720    0.131392   -1.843630
  H      0.216715    0.575608   -1.866213
  O      1.401540   -0.744474   -4.153757
  H      1.682672   -1.599812   -3.720257
  H      0.546173   -0.526820   -3.694459
  O      2.299488   -2.764341   -2.557466
  H      3.057637   -2.188300   -2.123140
  H      2.718773   -3.595160   -2.846242
  O     -3.993759    1.127441    1.503420
  H     -4.891563    1.506125    1.477407
  H     -3.381897    1.860928    1.932287
  O      0.404903    0.109972    2.262593
  H     -0.024555    0.335073    3.138784
  H     -0.241918   -0.566151    1.862063
  O     -3.058696   -0.855747    3.117800
  H     -2.516234   -1.358521    2.450996
  H     -3.583357   -0.223920    2.547424
  O     -1.370956    0.780724    4.127829
  H     -2.072438    0.078218    3.792437
  H     -1.377544    0.725123    5.101100
  O      1.362027    1.481580   -1.116185
  H      2.045304    1.539099   -1.846223
  H      1.742769    0.761240   -0.506386
  O     -2.340671    2.777833    2.548060
  H     -1.607470    2.825782    1.875973
  H     -1.953442    2.197892    3.264759
  O     -1.355894   -1.492585    1.103591
  H     -0.802224   -2.051136    0.491288
  H     -1.734008   -0.774090    0.490583
  O     -0.417566    2.126688    0.754668
  H     -0.035655    1.407427    1.364393
  H      0.278268    2.235417    0.048184
  O      4.012234   -1.179456   -1.502661
  H      3.584421   -0.939643   -0.636251
  H      3.851751   -0.368565   -2.065005
  O      2.192484   -0.527508    0.391845
  H      1.815059   -0.315788    1.289938
  H      1.537071   -1.201982    0.003922
  O      0.427312   -2.120195   -0.783322
  H      1.030544   -2.635811   -1.393942
  H      0.048012   -1.402297   -1.395664

 Total Charge           Charge          ....    0
 Multiplicity           Mult            ....    1
 Number of Electrons    NEL             ....  160
 Basis Dimension        Dim             ....  688

ORBITAL ENERGIES
----------------

  NO   OCC          E(Eh)            E(eV)
   0   2.0000     -19.143748      -520.9279
   1   2.0000     -19.143728      -520.9273
   2   2.0000     -19.143599      -520.9238
   3   2.0000     -19.143321      -520.9162
   4   2.0000     -19.131502      -520.5946
   5   2.0000     -19.131354      -520.5906
   6   2.0000     -19.131142      -520.5848
   7   2.0000     -19.130611      -520.5704
   8   2.0000     -19.129949      -520.5524
   9   2.0000     -19.129901      -520.5511
  10   2.0000     -19.129707      -520.5458
  11   2.0000     -19.129580      -520.5423
  12   2.0000     -19.127724      -520.4918
  13   2.0000     -19.127638      -520.4895
  14   2.0000     -19.127400      -520.4830
  15   2.0000     -19.127186      -520.4772
  16   2.0000      -1.043376       -28.3917
  17   2.0000      -1.037111       -28.2212
  18   2.0000      -1.027059       -27.9477
  19   2.0000      -1.025457       -27.9041
  20   2.0000      -1.023674       -27.8556
  21   2.0000      -1.018469       -27.7139
  22   2.0000      -1.016628       -27.6639
  23   2.0000      -1.013552       -27.5802
  24   2.0000      -1.007301       -27.4101
  25   2.0000      -1.002056       -27.2673
  26   2.0000      -1.000991       -27.2383
  27   2.0000      -0.996716       -27.1220
  28   2.0000      -0.995645       -27.0929
  29   2.0000      -0.994545       -27.0629
  30   2.0000      -0.986258       -26.8374
  31   2.0000      -0.975954       -26.5571
  32   2.0000      -0.554779       -15.0963
  33   2.0000      -0.552911       -15.0455
  34   2.0000      -0.551631       -15.0106
  35   2.0000      -0.549986       -14.9659
  36   2.0000      -0.547740       -14.9048
  37   2.0000      -0.542871       -14.7723
  38   2.0000      -0.541678       -14.7398
  39   2.0000      -0.539676       -14.6853
  40   2.0000      -0.531417       -14.4606
  41   2.0000      -0.529379       -14.4051
  42   2.0000      -0.524911       -14.2836
  43   2.0000      -0.524900       -14.2833
  44   2.0000      -0.523950       -14.2574
  45   2.0000      -0.518884       -14.1196
  46   2.0000      -0.517240       -14.0748
  47   2.0000      -0.515859       -14.0372
  48   2.0000      -0.479949       -13.0601
  49   2.0000      -0.467632       -12.7249
  50   2.0000      -0.443558       -12.0698
  51   2.0000      -0.439961       -11.9720
  52   2.0000      -0.436390       -11.8748
  53   2.0000      -0.427508       -11.6331
  54   2.0000      -0.426142       -11.5959
  55   2.0000      -0.419473       -11.4144
  56   2.0000      -0.406001       -11.0479
  57   2.0000      -0.405783       -11.0419
  58   2.0000      -0.402888       -10.9631
  59   2.0000      -0.399630       -10.8745
  60   2.0000      -0.382729       -10.4146
  61   2.0000      -0.381821       -10.3899
  62   2.0000      -0.370165       -10.0727
  63   2.0000      -0.350862        -9.5474
  64   2.0000      -0.338871        -9.2211
  65   2.0000      -0.337337        -9.1794
  66   2.0000      -0.336471        -9.1558
  67   2.0000      -0.333009        -9.0616
  68   2.0000      -0.330860        -9.0032
  69   2.0000      -0.329091        -8.9550
  70   2.0000      -0.327913        -8.9230
  71   2.0000      -0.325455        -8.8561
  72   2.0000      -0.323963        -8.8155
  73   2.0000      -0.323574        -8.8049
  74   2.0000      -0.322105        -8.7649
  75   2.0000      -0.319895        -8.7048
  76   2.0000      -0.318859        -8.6766
  77   2.0000      -0.318483        -8.6664
  78   2.0000      -0.318024        -8.6539
  79   2.0000      -0.316575        -8.6144
  80   0.0000      -0.001075        -0.0292
  81   0.0000       0.010301         0.2803
  82   0.0000       0.028999         0.7891
  83   0.0000       0.029277         0.7967
  84   0.0000       0.048383         1.3166

MULLIKEN ATOMIC CHARGES
-----------------------
   0 O :   -0.741549
   1 H :    0.335181
   2 H :    0.368839
   3 O :   -0.747580
   4 H :    0.372225
   5 H :    0.354192
   6 O :   -0.746330
   7 H :    0.387294
   8 H :    0.353891
   9 O :   -0.679669
  10 H :    0.359608
  11 H :    0.380714
  12 O :   -0.742177
  13 H :    0.368536
  14 H :    0.335421
  15 O :   -0.741428
  16 H :    0.335098
  17 H :    0.368476
  18 O :   -0.747557
  19 H :    0.372275
  20 H :    0.353778
  21 O :   -0.678664
  22 H :    0.381308
  23 H :    0.360011
  24 O :   -0.742139
  25 H :    0.367848
  26 H :    0.335286
  27 O :   -0.748795
  28 H :    0.372580
  29 H :    0.359462
  30 O :   -0.681004
  31 H :    0.382696
  32 H :    0.360187
  33 O :   -0.745922
  34 H :    0.386959
  35 H :    0.356351
  36 O :   -0.748865
  37 H :    0.357249
  38 H :    0.388609
  39 O :   -0.679321
  40 H :    0.380478
  41 H :    0.358779
  42 O :   -0.746851
  43 H :    0.387828
  44 H :    0.353442
  45 O :   -0.747286
  46 H :    0.371791
  47 H :    0.358744
Sum of atomic charges:    0.0000000

LOEWDIN ATOMIC CHARGES
----------------------
   0 O :   -0.313595
   1 H :    0.160616
   2 H :    0.143783
   3 O :   -0.305121
   4 H :    0.147178
   5 H :    0.137640
   6 O :   -0.298425
   7 H :    0.155889
   8 H :    0.138411
   9 O :   -0.268402
  10 H :    0.146806
  11 H :    0.155256
  12 O :   -0.313980
  13 H :    0.143959
  14 H :    0.160633
  15 O :   -0.313977
  16 H :    0.160666
  17 H :    0.143256
  18 O :   -0.305014
  19 H :    0.147793
  20 H :    0.137741
  21 O :   -0.268666
  22 H :    0.155630
  23 H :    0.147790
  24 O :   -0.315676
  25 H :    0.143346
  26 H :    0.160569
  27 O :   -0.305120
  28 H :    0.147735
  29 H :    0.138059
  30 O :   -0.269335
  31 H :    0.155314
  32 H :    0.148018
  33 O :   -0.298207
  34 H :    0.156136
  35 H :    0.138734
  36 O :   -0.299053
  37 H :    0.138551
  38 H :    0.155828
  39 O :   -0.269919
  40 H :    0.154858
  41 H :    0.146753
  42 O :   -0.297498
  43 H :    0.155887
  44 H :    0.138683
  45 O :   -0.305300
  46 H :    0.147636
  47 H :    0.138135

  Mayer bond orders larger than 0.1
B(  0-O ,  1-H ) :   0.8863 B(  0-O ,  2-H ) :   0.6940 B(  0-O , 28-H ) :   0.1115
B(  0-O , 41-H ) :   0.1069 B(  2-H ,  9-O ) :   0.2212 B(  3-O ,  4-H ) :   0.7964
B(  3-O ,  5-H ) :   0.7521 B(  3-O , 35-H ) :   0.1658 B(  4-H , 15-O ) :   0.1126
B(  5-H , 36-O ) :   0.1656 B(  6-O ,  7-H ) :   0.8047 B(  6-O ,  8-H ) :   0.7538
B(  6-O , 47-H ) :   0.1637 B(  8-H , 27-O ) :   0.1654 B(  9-O , 10-H ) :   0.8126
B(  9-O , 11-H ) :   0.8169 B( 10-H , 12-O ) :   0.1061 B( 12-O , 13-H ) :   0.6939
B( 12-O , 14-H ) :   0.8862 B( 12-O , 46-H ) :   0.1111 B( 13-H , 39-O ) :   0.2218
B( 15-O , 16-H ) :   0.8864 B( 15-O , 17-H ) :   0.6935 B( 15-O , 23-H ) :   0.1050
B( 17-H , 30-O ) :   0.2216 B( 18-O , 19-H ) :   0.7965 B( 18-O , 20-H ) :   0.7518
B( 18-O , 37-H ) :   0.1641 B( 19-H , 24-O ) :   0.1122 B( 20-H , 33-O ) :   0.1662
B( 21-O , 22-H ) :   0.8170 B( 21-O , 23-H ) :   0.8129 B( 21-O , 25-H ) :   0.2227
B( 24-O , 25-H ) :   0.6931 B( 24-O , 26-H ) :   0.8863 B( 24-O , 32-H ) :   0.1045
B( 27-O , 28-H ) :   0.7965 B( 27-O , 29-H ) :   0.7517 B( 29-H , 42-O ) :   0.1637
B( 30-O , 31-H ) :   0.8152 B( 30-O , 32-H ) :   0.8129 B( 33-O , 34-H ) :   0.8050
B( 33-O , 35-H ) :   0.7525 B( 36-O , 37-H ) :   0.7528 B( 36-O , 38-H ) :   0.8019
B( 39-O , 40-H ) :   0.8167 B( 39-O , 41-H ) :   0.8127 B( 42-O , 43-H ) :   0.8032
B( 42-O , 44-H ) :   0.7535 B( 44-H , 45-O ) :   0.1657 B( 45-O , 46-H ) :   0.7977
B( 45-O , 47-H ) :   0.7526

Dispersion correction           -0.063314837
FINAL SINGLE POINT ENERGY     -1223.120148620597

DIPOLE MOMENT
-------------
                                X             Y             Z
Electronic contribution:     -0.00516       0.00291      -0.00139
Nuclear contribution   :      0.01380      -0.02052      -0.00427
                        -----------------------------------------
Total Dipole Moment    :      0.00864      -0.01761      -0.00566
                        -----------------------------------------
Magnitude (a.u.)       :      0.02042
Magnitude (Debye)      :      0.05190

                             ****ORCA TERMINATED NORMALLY****
TOTAL RUN TIME: 0 days 0 hours 1 minutes 56 seconds 122 msec
