                         Program Version 3.0.3 - RELEASE   -
|  1> ! wB97X-D3 Def2-TZVP def2-TZVP/J RIJCOSX TightSCF Grid4 COSMO
|  2>
|  3> %pal nprocs 12 end
|  4>
|  5> %scf
|  6>         maxiter 400
|  7> end
|  8>
|  9> %cosmo
| 10>         SMD true
| 11>         solvent "WATER"
| 12> end
| 13>
| 14> * xyz  0  1
| 15> O  3.183806	1.014486	-3.235595
| 16> H  3.532059	1.625876	-3.901870
| 17> H  2.547821	0.404124	-3.712279
| 18> O  -2.296409	0.521909	-0.332394
| 19> H  -3.105492	0.814619	0.154542
| 20> H  -1.593007	1.129360	0.021874
| 21> O  -0.502942	-0.225540	-2.262015
| 22> H  -1.355586	0.045672	-1.859892
| 23> H  0.156838	0.421181	-1.892365
| 24> O  1.450762	-0.772682	-4.148498
| 25> H  1.782832	-1.549016	-3.635101
| 26> H  0.600658	-0.563819	-3.709023
| 27> O  2.426544	-2.642097	-2.419339
| 28> H  3.183598	-2.062888	-2.114213
| 29> H  2.843542	-3.449128	-2.758961
| 30> O  -4.028157	1.304058	1.557656
| 31> H  -4.898445	1.728571	1.499801
| 32> H  -3.417081	1.993097	1.950446
| 33> O  0.373310	-0.081914	2.286787
| 34> H  -0.056048	0.221791	3.123375
| 35> H  -0.300896	-0.709939	1.913997
| 36> O  -3.364357	-0.795228	3.171881
| 37> H  -2.821197	-1.299982	2.532279
| 38> H  -3.769715	-0.084542	2.619615
| 39> O  -1.409629	0.753705	4.144845
| 40> H  -2.160641	0.139153	3.904170
| 41> H  -1.398490	0.794151	5.113402
| 42> O  1.419887	1.327259	-1.230721
| 43> H  2.080238	1.447158	-1.956257
| 44> H  1.812298	0.637129	-0.634509
| 45> O  -2.162684	2.899743	2.608113
| 46> H  -1.477508	2.833883	1.909460
| 47> H  -1.858398	2.243202	3.280072
| 48> O  -1.571777	-1.582047	1.163449
| 49> H  -1.034534	-2.164518	0.588583
| 50> H  -1.897212	-0.865105	0.552150
| 51> O  -0.324849	1.985693	0.747485
| 52> H  0.030098	1.264307	1.334998
| 53> H  0.336662	2.061919	0.025222
| 54> O  4.243991	-0.875590	-1.608788
| 55> H  3.755800	-0.675663	-0.783839
| 56> H  4.030103	-0.127006	-2.214342
| 57> O  2.237786	-0.685408	0.347195
| 58> H  1.870156	-0.418555	1.217257
| 59> H  1.571529	-1.344575	0.018606
| 60> O  0.335915	-2.313352	-0.738491
| 61> H  1.037916	-2.711147	-1.305466
| 62> H  -0.042580	-1.611064	-1.329649
| 63> **                         ****END OF INPUT****

CARTESIAN COORDINATES (ANGSTROEM)
---------------------------------
  O      3.183806    1.014486   -3.235595
  H      3.532059    1.625876   -3.901870
  H      2.547821    0.404124   -3.712279
  O     -2.296409    0.521909   -0.332394
  H     -3.105492    0.814619    0.154542
  H     -1.593007    1.129360    0.021874
  O     -0.502942   -0.225540   -2.262015
  H     -1.355586    0.045672   -1.859892
  H      0.156838    0.421181   -1.892365
  O      1.450762   -0.772682   -4.148498
  H      1.782832   -1.549016   -3.635101
  H      0.600658   -0.563819   -3.709023
  O      2.426544   -2.642097   -2.419339
  H      3.183598   -2.062888   -2.114213
  H      2.843542   -3.449128   -2.758961
  O     -4.028157    1.304058    1.557656
  H     -4.898445    1.728571    1.499801
  H     -3.417081    1.993097    1.950446
  O      0.373310   -0.081914    2.286787
  H     -0.056048    0.221791    3.123375
  H     -0.300896   -0.709939    1.913997
  O     -3.364357   -0.795228    3.171881
  H     -2.821197   -1.299982    2.532279
  H     -3.769715   -0.084542    2.619615
  O     -1.409629    0.753705    4.144845
  H     -2.160641    0.139153    3.904170
  H     -1.398490    0.794151    5.113402
  O      1.419887    1.327259   -1.230721
  H      2.080238    1.447158   -1.956257
  H      1.812298    0.637129   -0.634509
  O     -2.162684    2.899743    2.608113
  H     -1.477508    2.833883    1.909460
  H     -1.858398    2.243202    3.280072
  O     -1.571777   -1.582047    1.163449
  H     -1.034534   -2.164518    0.588583
  H     -1.897212   -0.865105    0.552150
  O     -0.324849    1.985693    0.747485
  H      0.030098    1.264307    1.334998
  H      0.336662    2.061919    0.025222
  O      4.243991   -0.875590   -1.608788
  H      3.755800   -0.675663   -0.783839
  H      4.030103   -0.127006   -2.214342
  O      2.237786   -0.685408    0.347195
  H      1.870156   -0.418555    1.217257
  H      1.571529   -1.344575    0.018606
  O      0.335915   -2.313352   -0.738491
  H      1.037916   -2.711147   -1.305466
  H     -0.042580   -1.611064   -1.329649

 Total Charge           Charge          ....    0
 Multiplicity           Mult            ....    1
 Number of Electrons    NEL             ....  160
 Basis Dimension        Dim             ....  688

ORBITAL ENERGIES
----------------

  NO   OCC          E(Eh)            E(eV)
   0   2.0000     -19.240391      -523.5576
   1   2.0000     -19.240362      -523.5569
   2   2.0000     -19.240186      -523.5521
   3   2.0000     -19.240123      -523.5504
   4   2.0000     -19.240120      -523.5503
   5   2.0000     -19.237773      -523.4864
   6   2.0000     -19.235722      -523.4306
   7   2.0000     -19.235646      -523.4285
   8   2.0000     -19.234767      -523.4046
   9   2.0000     -19.234270      -523.3911
  10   2.0000     -19.232487      -523.3426
  11   2.0000     -19.232421      -523.3408
  12   2.0000     -19.231692      -523.3209
  13   2.0000     -19.230488      -523.2882
  14   2.0000     -19.229877      -523.2716
  15   2.0000     -19.229707      -523.2669
  16   2.0000      -1.155957       -31.4552
  17   2.0000      -1.148284       -31.2464
  18   2.0000      -1.139035       -30.9947
  19   2.0000      -1.137774       -30.9604
  20   2.0000      -1.136699       -30.9312
  21   2.0000      -1.132917       -30.8282
  22   2.0000      -1.131590       -30.7921
  23   2.0000      -1.129440       -30.7336
  24   2.0000      -1.121785       -30.5253
  25   2.0000      -1.118847       -30.4454
  26   2.0000      -1.117899       -30.4196
  27   2.0000      -1.114992       -30.3405
  28   2.0000      -1.113825       -30.3087
  29   2.0000      -1.112080       -30.2612
  30   2.0000      -1.104208       -30.0470
  31   2.0000      -1.097299       -29.8590
  32   2.0000      -0.656613       -17.8673
  33   2.0000      -0.650833       -17.7101
  34   2.0000      -0.650489       -17.7007
  35   2.0000      -0.645813       -17.5735
  36   2.0000      -0.644282       -17.5318
  37   2.0000      -0.641767       -17.4634
  38   2.0000      -0.639270       -17.3954
  39   2.0000      -0.635065       -17.2810
  40   2.0000      -0.634861       -17.2754
  41   2.0000      -0.631827       -17.1929
  42   2.0000      -0.629105       -17.1188
  43   2.0000      -0.627346       -17.0710
  44   2.0000      -0.626799       -17.0561
  45   2.0000      -0.623985       -16.9795
  46   2.0000      -0.621961       -16.9244
  47   2.0000      -0.618046       -16.8179
  48   2.0000      -0.575074       -15.6486
  49   2.0000      -0.559753       -15.2317
  50   2.0000      -0.543738       -14.7959
  51   2.0000      -0.536561       -14.6006
  52   2.0000      -0.529164       -14.3993
  53   2.0000      -0.527915       -14.3653
  54   2.0000      -0.520016       -14.1504
  55   2.0000      -0.516594       -14.0572
  56   2.0000      -0.504467       -13.7272
  57   2.0000      -0.501271       -13.6403
  58   2.0000      -0.499617       -13.5953
  59   2.0000      -0.494846       -13.4655
  60   2.0000      -0.482350       -13.1254
  61   2.0000      -0.479965       -13.0605
  62   2.0000      -0.470822       -12.8117
  63   2.0000      -0.454621       -12.3709
  64   2.0000      -0.433787       -11.8039
  65   2.0000      -0.432759       -11.7760
  66   2.0000      -0.429898       -11.6981
  67   2.0000      -0.427118       -11.6225
  68   2.0000      -0.426000       -11.5921
  69   2.0000      -0.425933       -11.5902
  70   2.0000      -0.425023       -11.5655
  71   2.0000      -0.424254       -11.5445
  72   2.0000      -0.421674       -11.4743
  73   2.0000      -0.421499       -11.4696
  74   2.0000      -0.420445       -11.4409
  75   2.0000      -0.419968       -11.4279
  76   2.0000      -0.418356       -11.3841
  77   2.0000      -0.417887       -11.3713
  78   2.0000      -0.416628       -11.3370
  79   2.0000      -0.415004       -11.2928
  80   0.0000       0.089653         2.4396
  81   0.0000       0.113593         3.0910
  82   0.0000       0.143837         3.9140
  83   0.0000       0.144534         3.9330
  84   0.0000       0.149682         4.0730

MULLIKEN ATOMIC CHARGES
-----------------------
   0 O :   -0.778207
   1 H :    0.406881
   2 H :    0.387524
   3 O :   -0.778279
   4 H :    0.394117
   5 H :    0.359758
   6 O :   -0.771228
   7 H :    0.401768
   8 H :    0.362015
   9 O :   -0.757879
  10 H :    0.371334
  11 H :    0.389082
  12 O :   -0.771347
  13 H :    0.374262
  14 H :    0.407251
  15 O :   -0.771230
  16 H :    0.406448
  17 H :    0.376696
  18 O :   -0.776043
  19 H :    0.396360
  20 H :    0.362421
  21 O :   -0.755077
  22 H :    0.390387
  23 H :    0.377952
  24 O :   -0.772416
  25 H :    0.375140
  26 H :    0.407169
  27 O :   -0.778966
  28 H :    0.395864
  29 H :    0.356345
  30 O :   -0.755304
  31 H :    0.392995
  32 H :    0.373787
  33 O :   -0.771176
  34 H :    0.403256
  35 H :    0.367196
  36 O :   -0.775430
  37 H :    0.362903
  38 H :    0.407396
  39 O :   -0.752333
  40 H :    0.387027
  41 H :    0.384864
  42 O :   -0.762598
  43 H :    0.407080
  44 H :    0.357482
  45 O :   -0.774981
  46 H :    0.392906
  47 H :    0.366830
Sum of atomic charges:   -0.0000000

LOEWDIN ATOMIC CHARGES
----------------------
   0 O :   -0.284761
   1 H :    0.187200
   2 H :    0.147143
   3 O :   -0.308195
   4 H :    0.146772
   5 H :    0.133539
   6 O :   -0.302747
   7 H :    0.155584
   8 H :    0.134407
   9 O :   -0.313257
  10 H :    0.141894
  11 H :    0.150283
  12 O :   -0.282407
  13 H :    0.143813
  14 H :    0.187552
  15 O :   -0.281311
  16 H :    0.187644
  17 H :    0.146652
  18 O :   -0.304718
  19 H :    0.150312
  20 H :    0.136492
  21 O :   -0.316454
  22 H :    0.150865
  23 H :    0.143516
  24 O :   -0.284092
  25 H :    0.146492
  26 H :    0.187195
  27 O :   -0.298233
  28 H :    0.145813
  29 H :    0.132943
  30 O :   -0.317602
  31 H :    0.149660
  32 H :    0.143671
  33 O :   -0.298429
  34 H :    0.158630
  35 H :    0.137270
  36 O :   -0.295399
  37 H :    0.134720
  38 H :    0.152804
  39 O :   -0.309800
  40 H :    0.150670
  41 H :    0.143126
  42 O :   -0.293952
  43 H :    0.158651
  44 H :    0.139999
  45 O :   -0.318876
  46 H :    0.147973
  47 H :    0.136954

  Mayer bond orders larger than 0.1
B(  0-O ,  1-H ) :   0.8387 B(  0-O ,  2-H ) :   0.7628 B(  0-O , 28-H ) :   0.1082
B(  2-H ,  9-O ) :   0.1270 B(  3-O ,  4-H ) :   0.7911 B(  3-O ,  5-H ) :   0.7762
B(  3-O , 35-H ) :   0.1358 B(  5-H , 36-O ) :   0.1333 B(  6-O ,  7-H ) :   0.8114
B(  6-O ,  8-H ) :   0.7759 B(  6-O , 47-H ) :   0.1234 B(  8-H , 27-O ) :   0.1312
B(  9-O , 10-H ) :   0.8018 B(  9-O , 11-H ) :   0.8224 B( 10-H , 12-O ) :   0.1098
B( 12-O , 13-H ) :   0.7636 B( 12-O , 14-H ) :   0.8399 B( 13-H , 39-O ) :   0.1407
B( 15-O , 16-H ) :   0.8397 B( 15-O , 17-H ) :   0.7648 B( 17-H , 30-O ) :   0.1363
B( 18-O , 19-H ) :   0.7958 B( 18-O , 20-H ) :   0.7788 B( 18-O , 37-H ) :   0.1381
B( 20-H , 33-O ) :   0.1335 B( 21-O , 22-H ) :   0.8270 B( 21-O , 23-H ) :   0.8045
B( 21-O , 25-H ) :   0.1361 B( 24-O , 25-H ) :   0.7668 B( 24-O , 26-H ) :   0.8396
B( 24-O , 32-H ) :   0.1003 B( 27-O , 28-H ) :   0.7837 B( 27-O , 29-H ) :   0.7789
B( 29-H , 42-O ) :   0.1317 B( 30-O , 31-H ) :   0.8217 B( 30-O , 32-H ) :   0.8072
B( 33-O , 34-H ) :   0.8178 B( 33-O , 35-H ) :   0.7716 B( 36-O , 37-H ) :   0.7715
B( 36-O , 38-H ) :   0.8030 B( 39-O , 40-H ) :   0.8319 B( 39-O , 41-H ) :   0.7989
B( 42-O , 43-H ) :   0.8122 B( 42-O , 44-H ) :   0.7838 B( 44-H , 45-O ) :   0.1354
B( 45-O , 46-H ) :   0.8036 B( 45-O , 47-H ) :   0.7846

Dispersion correction           -0.031982773
FINAL SINGLE POINT ENERGY     -1223.360020511829

DIPOLE MOMENT
-------------
                                X             Y             Z
Electronic contribution:      0.06204       0.06105       0.01042
Nuclear contribution   :     -0.03086       0.41806      -0.12573
                        -----------------------------------------
Total Dipole Moment    :      0.03118       0.47911      -0.11531
                        -----------------------------------------
Magnitude (a.u.)       :      0.49378
Magnitude (Debye)      :      1.25509

                             ****ORCA TERMINATED NORMALLY****
TOTAL RUN TIME: 0 days 0 hours 2 minutes 19 seconds 809 msec
