                         Program Version 4.2.0 -  RELEASE  -
|  1> # 12h2o.su.etal.mol2,3,4,8,9
|  2> ! MP2 def2-TZVP EnGrad TightSCF
|  3>
|  4> %pal
|  5>     nprocs 6
|  6> end
|  7>
|  8> %maxcore 8000
|  9>
| 10> %scf
| 11>     ConvForced true
| 12> end
| 13>
| 14> *xyz 0 1
| 15> O   0.923410000  -1.794470000  -2.768350000
| 16> H   1.359750000  -2.338250000  -3.430940000
| 17> H   1.303000000  -0.879480000  -2.865760000
| 18> O  -1.752130000  -0.741530000  -2.896280000
| 19> H  -2.036450000  -0.920500000  -1.984040000
| 20> H  -0.921210000  -1.242140000  -2.984230000
| 21> O  -0.885520000   1.737840000   0.052730000
| 22> H  -1.032320000   2.090180000  -0.841890000
| 23> H  -1.284090000   0.839590000   0.017130000
| 24> O   1.752130000   0.741530000  -2.896280000
| 25> H   2.036450000   0.920500000  -1.984040000
| 26> H   0.921210000   1.242140000  -2.984230000
| 27> O   0.741530000  -1.752130000   2.896280000
| 28> H   0.920500000  -2.036450000   1.984040000
| 29> H   1.242140000  -0.921210000   2.984230000
| 30> *
| 31>
| 32>                          ****END OF INPUT****

CARTESIAN COORDINATES (ANGSTROEM)
---------------------------------
  O      0.923410   -1.794470   -2.768350
  H      1.359750   -2.338250   -3.430940
  H      1.303000   -0.879480   -2.865760
  O     -1.752130   -0.741530   -2.896280
  H     -2.036450   -0.920500   -1.984040
  H     -0.921210   -1.242140   -2.984230
  O     -0.885520    1.737840    0.052730
  H     -1.032320    2.090180   -0.841890
  H     -1.284090    0.839590    0.017130
  O      1.752130    0.741530   -2.896280
  H      2.036450    0.920500   -1.984040
  H      0.921210    1.242140   -2.984230
  O      0.741530   -1.752130    2.896280
  H      0.920500   -2.036450    1.984040
  H      1.242140   -0.921210    2.984230

 Total Charge           Charge          ....    0
 Multiplicity           Mult            ....    1
 Number of Electrons    NEL             ....   50
 Basis Dimension        Dim             ....  215

ORBITAL ENERGIES
----------------

  NO   OCC          E(Eh)            E(eV)
   0   2.0000     -20.610508      -560.8404
   1   2.0000     -20.578899      -559.9803
   2   2.0000     -20.563036      -559.5487
   3   2.0000     -20.556980      -559.3839
   4   2.0000     -20.546965      -559.1113
   5   2.0000      -1.396244       -37.9937
   6   2.0000      -1.354583       -36.8601
   7   2.0000      -1.342522       -36.5319
   8   2.0000      -1.342273       -36.5251
   9   2.0000      -1.327365       -36.1194
  10   2.0000      -0.752902       -20.4875
  11   2.0000      -0.726629       -19.7726
  12   2.0000      -0.716798       -19.5051
  13   2.0000      -0.705007       -19.1842
  14   2.0000      -0.696736       -18.9591
  15   2.0000      -0.635713       -17.2986
  16   2.0000      -0.594127       -16.1670
  17   2.0000      -0.593452       -16.1487
  18   2.0000      -0.579715       -15.7748
  19   2.0000      -0.566515       -15.4157
  20   2.0000      -0.538747       -14.6601
  21   2.0000      -0.521560       -14.1924
  22   2.0000      -0.507113       -13.7992
  23   2.0000      -0.506173       -13.7737
  24   2.0000      -0.493831       -13.4378
  25   0.0000       0.078025         2.1232
  26   0.0000       0.120171         3.2700
  27   0.0000       0.133956         3.6451
  28   0.0000       0.145329         3.9546
  29   0.0000       0.168536         4.5861

MULLIKEN ATOMIC CHARGES
-----------------------
   0 O :   -0.740682
   1 H :    0.343824
   2 H :    0.377965
   3 O :   -0.709626
   4 H :    0.320445
   5 H :    0.365223
   6 O :   -0.675441
   7 H :    0.335878
   8 H :    0.338585
   9 O :   -0.682121
  10 H :    0.363391
  11 H :    0.362283
  12 O :   -0.675389
  13 H :    0.337125
  14 H :    0.338539
Sum of atomic charges:   -0.0000000

LOEWDIN ATOMIC CHARGES
----------------------
   0 O :   -0.340500
   1 H :    0.156932
   2 H :    0.144714
   3 O :   -0.347848
   4 H :    0.154403
   5 H :    0.148544
   6 O :   -0.334478
   7 H :    0.162643
   8 H :    0.170895
   9 O :   -0.267733
  10 H :    0.176486
  11 H :    0.175757
  12 O :   -0.332275
  13 H :    0.165206
  14 H :    0.167255

  Mayer bond orders larger than 0.100000
B(  0-O ,  1-H ) :   0.8470 B(  0-O ,  2-H ) :   0.7655 B(  3-O ,  4-H ) :   0.8610
B(  3-O ,  5-H ) :   0.8014 B(  6-O ,  7-H ) :   0.8521 B(  6-O ,  8-H ) :   0.8478
B(  9-O , 10-H ) :   0.8330 B(  9-O , 11-H ) :   0.8304 B( 12-O , 13-H ) :   0.8531
B( 12-O , 14-H ) :   0.8521

MP2 TOTAL ENERGY:     -381.588065783 Eh
FINAL SINGLE POINT ENERGY      -381.588065783352

DIPOLE MOMENT
-------------
                                X             Y             Z
Electronic contribution:      0.16184       0.17056       0.08719
Nuclear contribution   :      0.79086       0.30955      -0.72077
                        -----------------------------------------
Total Dipole Moment    :      0.95270       0.48012      -0.63357
                        -----------------------------------------
Magnitude (a.u.)       :      1.24079
Magnitude (Debye)      :      3.15384

Rotational constants in cm-1:     0.052454     0.027913     0.025336
Rotational constants in MHz :  1572.544933   836.814180   759.562029

                             ****ORCA TERMINATED NORMALLY****
TOTAL RUN TIME: 0 days 0 hours 0 minutes 33 seconds 294 msec
