                         Program Version 4.2.0 -  RELEASE  -
|  1> # 12h2o.su.etal.mol0,3,4,5,8,9
|  2> ! MP2 def2-TZVP EnGrad TightSCF
|  3>
|  4> %pal
|  5>     nprocs 6
|  6> end
|  7>
|  8> %maxcore 8000
|  9>
| 10> %scf
| 11>     ConvForced true
| 12> end
| 13>
| 14> *xyz 0 1
| 15> O   1.794470000   0.923410000   2.768350000
| 16> H   2.338250000   1.359750000   3.430940000
| 17> H   0.879480000   1.303000000   2.865760000
| 18> O  -1.752130000  -0.741530000  -2.896280000
| 19> H  -2.036450000  -0.920500000  -1.984040000
| 20> H  -0.921210000  -1.242140000  -2.984230000
| 21> O  -0.885520000   1.737840000   0.052730000
| 22> H  -1.032320000   2.090180000  -0.841890000
| 23> H  -1.284090000   0.839590000   0.017130000
| 24> O   0.885520000  -1.737840000   0.052730000
| 25> H   1.284090000  -0.839590000   0.017130000
| 26> H   1.032320000  -2.090180000  -0.841890000
| 27> O   1.752130000   0.741530000  -2.896280000
| 28> H   2.036450000   0.920500000  -1.984040000
| 29> H   0.921210000   1.242140000  -2.984230000
| 30> O   0.741530000  -1.752130000   2.896280000
| 31> H   0.920500000  -2.036450000   1.984040000
| 32> H   1.242140000  -0.921210000   2.984230000
| 33> *
| 34>
| 35>                          ****END OF INPUT****

CARTESIAN COORDINATES (ANGSTROEM)
---------------------------------
  O      1.794470    0.923410    2.768350
  H      2.338250    1.359750    3.430940
  H      0.879480    1.303000    2.865760
  O     -1.752130   -0.741530   -2.896280
  H     -2.036450   -0.920500   -1.984040
  H     -0.921210   -1.242140   -2.984230
  O     -0.885520    1.737840    0.052730
  H     -1.032320    2.090180   -0.841890
  H     -1.284090    0.839590    0.017130
  O      0.885520   -1.737840    0.052730
  H      1.284090   -0.839590    0.017130
  H      1.032320   -2.090180   -0.841890
  O      1.752130    0.741530   -2.896280
  H      2.036450    0.920500   -1.984040
  H      0.921210    1.242140   -2.984230
  O      0.741530   -1.752130    2.896280
  H      0.920500   -2.036450    1.984040
  H      1.242140   -0.921210    2.984230

 Total Charge           Charge          ....    0
 Multiplicity           Mult            ....    1
 Number of Electrons    NEL             ....   60
 Basis Dimension        Dim             ....  258

ORBITAL ENERGIES
----------------

  NO   OCC          E(Eh)            E(eV)
   0   2.0000     -20.592084      -560.3391
   1   2.0000     -20.586495      -560.1870
   2   2.0000     -20.584638      -560.1365
   3   2.0000     -20.582140      -560.0685
   4   2.0000     -20.582115      -560.0678
   5   2.0000     -20.506196      -558.0020
   6   2.0000      -1.370235       -37.2860
   7   2.0000      -1.364131       -37.1199
   8   2.0000      -1.361543       -37.0495
   9   2.0000      -1.360661       -37.0255
  10   2.0000      -1.360138       -37.0112
  11   2.0000      -1.291576       -35.1456
  12   2.0000      -0.732608       -19.9353
  13   2.0000      -0.731029       -19.8923
  14   2.0000      -0.725022       -19.7288
  15   2.0000      -0.722614       -19.6633
  16   2.0000      -0.721636       -19.6367
  17   2.0000      -0.670617       -18.2484
  18   2.0000      -0.614909       -16.7325
  19   2.0000      -0.601035       -16.3550
  20   2.0000      -0.598926       -16.2976
  21   2.0000      -0.597908       -16.2699
  22   2.0000      -0.596401       -16.2289
  23   2.0000      -0.545325       -14.8391
  24   2.0000      -0.533719       -14.5232
  25   2.0000      -0.529009       -14.3951
  26   2.0000      -0.526224       -14.3193
  27   2.0000      -0.522764       -14.2251
  28   2.0000      -0.513054       -13.9609
  29   2.0000      -0.456128       -12.4119
  30   0.0000       0.066447         1.8081
  31   0.0000       0.116096         3.1591
  32   0.0000       0.122336         3.3289
  33   0.0000       0.124862         3.3977
  34   0.0000       0.158750         4.3198

MULLIKEN ATOMIC CHARGES
-----------------------
   0 O :   -0.702582
   1 H :    0.352529
   2 H :    0.368620
   3 O :   -0.675814
   4 H :    0.334548
   5 H :    0.342242
   6 O :   -0.680829
   7 H :    0.338869
   8 H :    0.342452
   9 O :   -0.695016
  10 H :    0.349756
  11 H :    0.344497
  12 O :   -0.676824
  13 H :    0.335987
  14 H :    0.342307
  15 O :   -0.725148
  16 H :    0.362628
  17 H :    0.341778
Sum of atomic charges:   -0.0000000

LOEWDIN ATOMIC CHARGES
----------------------
   0 O :   -0.314112
   1 H :    0.163396
   2 H :    0.190618
   3 O :   -0.327224
   4 H :    0.161854
   5 H :    0.166128
   6 O :   -0.334172
   7 H :    0.164288
   8 H :    0.170800
   9 O :   -0.314933
  10 H :    0.172915
  11 H :    0.165881
  12 O :   -0.327566
  13 H :    0.162269
  14 H :    0.166146
  15 O :   -0.355411
  16 H :    0.148571
  17 H :    0.140553

  Mayer bond orders larger than 0.100000
B(  0-O ,  1-H ) :   0.8417 B(  0-O ,  2-H ) :   0.8239 B(  3-O ,  4-H ) :   0.8522
B(  3-O ,  5-H ) :   0.8462 B(  6-O ,  7-H ) :   0.8500 B(  6-O ,  8-H ) :   0.8433
B(  9-O , 10-H ) :   0.8331 B(  9-O , 11-H ) :   0.8432 B( 12-O , 13-H ) :   0.8515
B( 12-O , 14-H ) :   0.8460 B( 15-O , 16-H ) :   0.8313 B( 15-O , 17-H ) :   0.8305

MP2 TOTAL ENERGY:     -457.899641443 Eh
FINAL SINGLE POINT ENERGY      -457.899641442994

DIPOLE MOMENT
-------------
                                X             Y             Z
Electronic contribution:      0.00185      -0.00002      -0.11040
Nuclear contribution   :      0.25668       1.13412      -0.22986
                        -----------------------------------------
Total Dipole Moment    :      0.25853       1.13410      -0.34026
                        -----------------------------------------
Magnitude (a.u.)       :      1.21194
Magnitude (Debye)      :      3.08050

Rotational constants in cm-1:     0.048815     0.021828     0.020352
Rotational constants in MHz :  1463.438783   654.372603   610.127825

                             ****ORCA TERMINATED NORMALLY****
TOTAL RUN TIME: 0 days 0 hours 0 minutes 59 seconds 507 msec
