                         Program Version 4.2.0 -  RELEASE  -
|  1> # 12h2o.su.etal.mol2,3,6,7,10,11
|  2> ! MP2 def2-TZVP EnGrad TightSCF
|  3>
|  4> %pal
|  5>     nprocs 6
|  6> end
|  7>
|  8> %maxcore 8000
|  9>
| 10> %scf
| 11>     ConvForced true
| 12> end
| 13>
| 14> *xyz 0 1
| 15> O   0.923410000  -1.794470000  -2.768350000
| 16> H   1.359750000  -2.338250000  -3.430940000
| 17> H   1.303000000  -0.879480000  -2.865760000
| 18> O  -1.752130000  -0.741530000  -2.896280000
| 19> H  -2.036450000  -0.920500000  -1.984040000
| 20> H  -0.921210000  -1.242140000  -2.984230000
| 21> O   1.737840000   0.885520000  -0.052730000
| 22> H   2.090180000   1.032320000   0.841890000
| 23> H   0.839590000   1.284090000  -0.017130000
| 24> O  -1.737840000  -0.885520000  -0.052730000
| 25> H  -2.090180000  -1.032320000   0.841890000
| 26> H  -0.839590000  -1.284090000  -0.017130000
| 27> O  -0.923410000   1.794470000  -2.768350000
| 28> H  -1.359750000   2.338250000  -3.430940000
| 29> H  -1.303000000   0.879480000  -2.865760000
| 30> O  -0.741530000   1.752130000   2.896280000
| 31> H  -0.920500000   2.036450000   1.984040000
| 32> H  -1.242140000   0.921210000   2.984230000
| 33> *
| 34>
| 35>                          ****END OF INPUT****

CARTESIAN COORDINATES (ANGSTROEM)
---------------------------------
  O      0.923410   -1.794470   -2.768350
  H      1.359750   -2.338250   -3.430940
  H      1.303000   -0.879480   -2.865760
  O     -1.752130   -0.741530   -2.896280
  H     -2.036450   -0.920500   -1.984040
  H     -0.921210   -1.242140   -2.984230
  O      1.737840    0.885520   -0.052730
  H      2.090180    1.032320    0.841890
  H      0.839590    1.284090   -0.017130
  O     -1.737840   -0.885520   -0.052730
  H     -2.090180   -1.032320    0.841890
  H     -0.839590   -1.284090   -0.017130
  O     -0.923410    1.794470   -2.768350
  H     -1.359750    2.338250   -3.430940
  H     -1.303000    0.879480   -2.865760
  O     -0.741530    1.752130    2.896280
  H     -0.920500    2.036450    1.984040
  H     -1.242140    0.921210    2.984230

 Total Charge           Charge          ....    0
 Multiplicity           Mult            ....    1
 Number of Electrons    NEL             ....   60
 Basis Dimension        Dim             ....  258

ORBITAL ENERGIES
----------------

  NO   OCC          E(Eh)            E(eV)
   0   2.0000     -20.595342      -560.4278
   1   2.0000     -20.585783      -560.1676
   2   2.0000     -20.575677      -559.8926
   3   2.0000     -20.559236      -559.4452
   4   2.0000     -20.541812      -558.9711
   5   2.0000     -20.508312      -558.0595
   6   2.0000      -1.373925       -37.3864
   7   2.0000      -1.363829       -37.1117
   8   2.0000      -1.354632       -36.8614
   9   2.0000      -1.335020       -36.3277
  10   2.0000      -1.333262       -36.2799
  11   2.0000      -1.289587       -35.0914
  12   2.0000      -0.736232       -20.0339
  13   2.0000      -0.730968       -19.8907
  14   2.0000      -0.717474       -19.5235
  15   2.0000      -0.699836       -19.0435
  16   2.0000      -0.696617       -18.9559
  17   2.0000      -0.675756       -18.3882
  18   2.0000      -0.622476       -16.9384
  19   2.0000      -0.601027       -16.3548
  20   2.0000      -0.591977       -16.1085
  21   2.0000      -0.575586       -15.6625
  22   2.0000      -0.571745       -15.5580
  23   2.0000      -0.540102       -14.6969
  24   2.0000      -0.535557       -14.5732
  25   2.0000      -0.521952       -14.2030
  26   2.0000      -0.519165       -14.1272
  27   2.0000      -0.501997       -13.6600
  28   2.0000      -0.480871       -13.0852
  29   2.0000      -0.459257       -12.4970
  30   0.0000       0.079177         2.1545
  31   0.0000       0.118963         3.2372
  32   0.0000       0.136385         3.7112
  33   0.0000       0.162846         4.4313
  34   0.0000       0.172029         4.6812

MULLIKEN ATOMIC CHARGES
-----------------------
   0 O :   -0.709273
   1 H :    0.352834
   2 H :    0.379358
   3 O :   -0.716219
   4 H :    0.379057
   5 H :    0.360860
   6 O :   -0.686368
   7 H :    0.339201
   8 H :    0.345459
   9 O :   -0.698974
  10 H :    0.340630
  11 H :    0.364330
  12 O :   -0.742336
  13 H :    0.321531
  14 H :    0.368885
  15 O :   -0.669450
  16 H :    0.340749
  17 H :    0.329726
Sum of atomic charges:   -0.0000000

LOEWDIN ATOMIC CHARGES
----------------------
   0 O :   -0.313703
   1 H :    0.163975
   2 H :    0.194896
   3 O :   -0.288230
   4 H :    0.155589
   5 H :    0.147970
   6 O :   -0.337540
   7 H :    0.165285
   8 H :    0.170772
   9 O :   -0.316218
  10 H :    0.165736
  11 H :    0.180710
  12 O :   -0.378448
  13 H :    0.146896
  14 H :    0.141656
  15 O :   -0.326653
  16 H :    0.164569
  17 H :    0.162739

  Mayer bond orders larger than 0.100000
B(  0-O ,  1-H ) :   0.8415 B(  0-O ,  2-H ) :   0.8152 B(  3-O ,  4-H ) :   0.8122
B(  3-O ,  5-H ) :   0.8077 B(  3-O , 14-H ) :   0.1043 B(  6-O ,  7-H ) :   0.8503
B(  6-O ,  8-H ) :   0.8397 B(  9-O , 10-H ) :   0.8465 B(  9-O , 11-H ) :   0.8259
B( 12-O , 13-H ) :   0.8621 B( 12-O , 14-H ) :   0.7677 B( 15-O , 16-H ) :   0.8488
B( 15-O , 17-H ) :   0.8563

MP2 TOTAL ENERGY:     -457.911297486 Eh
FINAL SINGLE POINT ENERGY      -457.911297485633

DIPOLE MOMENT
-------------
                                X             Y             Z
Electronic contribution:      0.13031      -0.20781       0.08490
Nuclear contribution   :     -0.11069      -1.02062       0.28337
                        -----------------------------------------
Total Dipole Moment    :      0.01963      -1.22843       0.36827
                        -----------------------------------------
Magnitude (a.u.)       :      1.28259
Magnitude (Debye)      :      3.26010

Rotational constants in cm-1:     0.050241     0.024244     0.022922
Rotational constants in MHz :  1506.199134   726.822506   687.179220

                             ****ORCA TERMINATED NORMALLY****
TOTAL RUN TIME: 0 days 0 hours 0 minutes 57 seconds 884 msec
