                         Program Version 3.0.3 - RELEASE   -
|  1> ! BP86 Def2-SVP TightSCF Opt D3BJ
|  2>
|  3> %pal nprocs 12 end
|  4>
|  5> %scf
|  6>         maxiter 800
|  7> end
|  8>
|  9> * xyz  0  1
| 10> O  1.27199656	0.30467417	0.95336430
| 11> H  0.54103699	0.08639096	0.37519271
| 12> H  1.99446465	0.50972139	0.35987686
| 13> O  -0.97494938	-0.15679262	-0.58304936
| 14> H  -1.18239548	-0.93092905	-1.10641419
| 15> H  -1.81235933	0.10618274	-0.20118501
| 16> **                         ****END OF INPUT****
 Total Charge           Charge          ....    0
 Multiplicity           Mult            ....    1
 Number of Electrons    NEL             ....   20
Dispersion correction           -0.001886864
FINAL SINGLE POINT ENERGY      -152.732840190164
Dispersion correction            ...
Dispersion correction           -0.001847834
FINAL SINGLE POINT ENERGY      -152.734592955952
Dispersion correction            ...
Dispersion correction           -0.001851287
FINAL SINGLE POINT ENERGY      -152.734892661407
Dispersion correction            ...
FINAL SINGLE POINT ENERGY      -152.735342022061
FINAL SINGLE POINT ENERGY      -152.735578178724
FINAL SINGLE POINT ENERGY      -152.735989136486
FINAL SINGLE POINT ENERGY      -152.736265545492
FINAL SINGLE POINT ENERGY      -152.736334777243
FINAL SINGLE POINT ENERGY      -152.736358042810
FINAL SINGLE POINT ENERGY      -152.736368041921
FINAL SINGLE POINT ENERGY      -152.736659356908
FINAL SINGLE POINT ENERGY      -152.736659283283
FINAL SINGLE POINT ENERGY      -152.736659342925
FINAL SINGLE POINT ENERGY      -152.736659815943
FINAL SINGLE POINT ENERGY      -152.736660479067
FINAL SINGLE POINT ENERGY      -152.736661271495
FINAL SINGLE POINT ENERGY      -152.736661997494
Dispersion correction            ...
Dispersion correction           -0.001985052
FINAL SINGLE POINT ENERGY      -152.736662560622
Dispersion correction            ...
Dispersion correction           -0.001985423
FINAL SINGLE POINT ENERGY      -152.736662877097
Dispersion correction            ...
                    ***********************HURRAY********************

CARTESIAN COORDINATES (ANGSTROEM)
---------------------------------
  O      1.152646    0.055937    0.849348
  H      0.558789    0.047918    0.062003
  H      1.816728    0.726111    0.605901
  O     -1.068887   -0.096147   -0.886074
  H     -1.157299   -1.062779   -0.772597
  H     -1.464183    0.248207   -0.060796

 Multiplicity           Mult            ....    1
 Number of Electrons    NEL             ....   20
 Basis Dimension        Dim             ....   48

ORBITAL ENERGIES
----------------

  NO   OCC          E(Eh)            E(eV)
   0   2.0000     -18.800646      -511.5916
   1   2.0000     -18.735149      -509.8093
   2   2.0000      -0.928178       -25.2570
   3   2.0000      -0.863609       -23.5000
   4   2.0000      -0.488400       -13.2900
   5   2.0000      -0.434107       -11.8126
   6   2.0000      -0.351222        -9.5572
   7   2.0000      -0.298708        -8.1282
   8   2.0000      -0.266548        -7.2531
   9   2.0000      -0.212175        -5.7736
  10   0.0000       0.008510         0.2316
  11   0.0000       0.070395         1.9155
  12   0.0000       0.088961         2.4208
  13   0.0000       0.186943         5.0870
  14   0.0000       0.476873        12.9764

MULLIKEN ATOMIC CHARGES
-----------------------
   0 O :   -0.335373
   1 H :    0.097652
   2 H :    0.147961
   3 O :   -0.253646
   4 H :    0.174182
   5 H :    0.169224
Sum of atomic charges:   -0.0000000

LOEWDIN ATOMIC CHARGES
----------------------
   0 O :   -0.184839
   1 H :    0.030484
   2 H :    0.072226
   3 O :   -0.097952
   4 H :    0.092165
   5 H :    0.087916

  Mayer bond orders larger than 0.1
B(  0-O ,  1-H ) :   0.9426 B(  0-O ,  2-H ) :   1.0067 B(  1-H ,  3-O ) :   0.1763
B(  3-O ,  4-H ) :   0.9930 B(  3-O ,  5-H ) :   0.9862

Dispersion correction           -0.001985529
FINAL SINGLE POINT ENERGY      -152.736662976652

DIPOLE MOMENT
-------------
                                X             Y             Z
Electronic contribution:     -0.15971      -0.04982      -0.12496
Nuclear contribution   :     -0.34417       0.03319      -0.07661
                        -----------------------------------------
Total Dipole Moment    :     -0.50388      -0.01663      -0.20156
                        -----------------------------------------
Magnitude (a.u.)       :      0.54295
Magnitude (Debye)      :      1.38008

                             ****ORCA TERMINATED NORMALLY****
TOTAL RUN TIME: 0 days 0 hours 35 minutes 25 seconds 439 msec
