                         Program Version 4.2.0 -  RELEASE  -
|  1> # 12h2o.su.etal.mol2,3,4,5,8,9,10
|  2> ! MP2 def2-TZVP EnGrad TightSCF
|  3>
|  4> %pal
|  5>     nprocs 6
|  6> end
|  7>
|  8> %maxcore 8000
|  9>
| 10> %scf
| 11>     ConvForced true
| 12> end
| 13>
| 14> *xyz 0 1
| 15> O   0.923410000  -1.794470000  -2.768350000
| 16> H   1.359750000  -2.338250000  -3.430940000
| 17> H   1.303000000  -0.879480000  -2.865760000
| 18> O  -1.752130000  -0.741530000  -2.896280000
| 19> H  -2.036450000  -0.920500000  -1.984040000
| 20> H  -0.921210000  -1.242140000  -2.984230000
| 21> O  -0.885520000   1.737840000   0.052730000
| 22> H  -1.032320000   2.090180000  -0.841890000
| 23> H  -1.284090000   0.839590000   0.017130000
| 24> O   0.885520000  -1.737840000   0.052730000
| 25> H   1.284090000  -0.839590000   0.017130000
| 26> H   1.032320000  -2.090180000  -0.841890000
| 27> O   1.752130000   0.741530000  -2.896280000
| 28> H   2.036450000   0.920500000  -1.984040000
| 29> H   0.921210000   1.242140000  -2.984230000
| 30> O   0.741530000  -1.752130000   2.896280000
| 31> H   0.920500000  -2.036450000   1.984040000
| 32> H   1.242140000  -0.921210000   2.984230000
| 33> O  -0.923410000   1.794470000  -2.768350000
| 34> H  -1.359750000   2.338250000  -3.430940000
| 35> H  -1.303000000   0.879480000  -2.865760000
| 36> *
| 37>
| 38>                          ****END OF INPUT****

CARTESIAN COORDINATES (ANGSTROEM)
---------------------------------
  O      0.923410   -1.794470   -2.768350
  H      1.359750   -2.338250   -3.430940
  H      1.303000   -0.879480   -2.865760
  O     -1.752130   -0.741530   -2.896280
  H     -2.036450   -0.920500   -1.984040
  H     -0.921210   -1.242140   -2.984230
  O     -0.885520    1.737840    0.052730
  H     -1.032320    2.090180   -0.841890
  H     -1.284090    0.839590    0.017130
  O      0.885520   -1.737840    0.052730
  H      1.284090   -0.839590    0.017130
  H      1.032320   -2.090180   -0.841890
  O      1.752130    0.741530   -2.896280
  H      2.036450    0.920500   -1.984040
  H      0.921210    1.242140   -2.984230
  O      0.741530   -1.752130    2.896280
  H      0.920500   -2.036450    1.984040
  H      1.242140   -0.921210    2.984230
  O     -0.923410    1.794470   -2.768350
  H     -1.359750    2.338250   -3.430940
  H     -1.303000    0.879480   -2.865760

 Total Charge           Charge          ....    0
 Multiplicity           Mult            ....    1
 Number of Electrons    NEL             ....   70
 Basis Dimension        Dim             ....  301

ORBITAL ENERGIES
----------------

  NO   OCC          E(Eh)            E(eV)
   0   2.0000     -20.595987      -560.4453
   1   2.0000     -20.593783      -560.3853
   2   2.0000     -20.588928      -560.2532
   3   2.0000     -20.584263      -560.1263
   4   2.0000     -20.569342      -559.7203
   5   2.0000     -20.546922      -559.1102
   6   2.0000     -20.523993      -558.4862
   7   2.0000      -1.394617       -37.9495
   8   2.0000      -1.383936       -37.6588
   9   2.0000      -1.373150       -37.3653
  10   2.0000      -1.362572       -37.0775
  11   2.0000      -1.349837       -36.7309
  12   2.0000      -1.325548       -36.0700
  13   2.0000      -1.305819       -35.5331
  14   2.0000      -0.756600       -20.5881
  15   2.0000      -0.753751       -20.5106
  16   2.0000      -0.744354       -20.2549
  17   2.0000      -0.738800       -20.1038
  18   2.0000      -0.719673       -19.5833
  19   2.0000      -0.695336       -18.9211
  20   2.0000      -0.674668       -18.3587
  21   2.0000      -0.653363       -17.7789
  22   2.0000      -0.627437       -17.0734
  23   2.0000      -0.616739       -16.7823
  24   2.0000      -0.600699       -16.3458
  25   2.0000      -0.587569       -15.9886
  26   2.0000      -0.569625       -15.5003
  27   2.0000      -0.546155       -14.8616
  28   2.0000      -0.539229       -14.6732
  29   2.0000      -0.535767       -14.5790
  30   2.0000      -0.532834       -14.4992
  31   2.0000      -0.527717       -14.3599
  32   2.0000      -0.513764       -13.9802
  33   2.0000      -0.492170       -13.3926
  34   2.0000      -0.470487       -12.8026
  35   0.0000       0.083504         2.2723
  36   0.0000       0.123226         3.3532
  37   0.0000       0.133527         3.6335
  38   0.0000       0.138188         3.7603
  39   0.0000       0.164235         4.4691

MULLIKEN ATOMIC CHARGES
-----------------------
   0 O :   -0.759774
   1 H :    0.357797
   2 H :    0.382396
   3 O :   -0.704594
   4 H :    0.356090
   5 H :    0.383423
   6 O :   -0.696461
   7 H :    0.365619
   8 H :    0.321092
   9 O :   -0.710168
  10 H :    0.323536
  11 H :    0.376073
  12 O :   -0.704479
  13 H :    0.353872
  14 H :    0.384860
  15 O :   -0.696019
  16 H :    0.369841
  17 H :    0.318834
  18 O :   -0.758349
  19 H :    0.356053
  20 H :    0.380358
Sum of atomic charges:    0.0000000

LOEWDIN ATOMIC CHARGES
----------------------
   0 O :   -0.315200
   1 H :    0.162679
   2 H :    0.145413
   3 O :   -0.277642
   4 H :    0.170679
   5 H :    0.155595
   6 O :   -0.345495
   7 H :    0.147065
   8 H :    0.160387
   9 O :   -0.324703
  10 H :    0.162000
  11 H :    0.151824
  12 O :   -0.277633
  13 H :    0.169494
  14 H :    0.156308
  15 O :   -0.341803
  16 H :    0.151700
  17 H :    0.157617
  18 O :   -0.315159
  19 H :    0.161722
  20 H :    0.145154

  Mayer bond orders larger than 0.100000
B(  0-O ,  1-H ) :   0.8364 B(  0-O ,  2-H ) :   0.7334 B(  2-H , 12-O ) :   0.1137
B(  3-O ,  4-H ) :   0.8368 B(  3-O ,  5-H ) :   0.7861 B(  3-O , 20-H ) :   0.1118
B(  6-O ,  7-H ) :   0.8171 B(  6-O ,  8-H ) :   0.8561 B(  9-O , 10-H ) :   0.8480
B(  9-O , 11-H ) :   0.8036 B( 12-O , 13-H ) :   0.8385 B( 12-O , 14-H ) :   0.7827
B( 15-O , 16-H ) :   0.8200 B( 15-O , 17-H ) :   0.8634 B( 18-O , 19-H ) :   0.8370
B( 18-O , 20-H ) :   0.7347

MP2 TOTAL ENERGY:     -534.259195948 Eh
FINAL SINGLE POINT ENERGY      -534.259195948283

DIPOLE MOMENT
-------------
                                X             Y             Z
Electronic contribution:     -0.13430      -0.08078      -0.24435
Nuclear contribution   :      0.56566       0.45497      -2.12764
                        -----------------------------------------
Total Dipole Moment    :      0.43136       0.37418      -2.37199
                        -----------------------------------------
Magnitude (a.u.)       :      2.43976
Magnitude (Debye)      :      6.20137

Rotational constants in cm-1:     0.041672     0.022624     0.019011
Rotational constants in MHz :  1249.305257   678.255136   569.922135

                             ****ORCA TERMINATED NORMALLY****
TOTAL RUN TIME: 0 days 0 hours 2 minutes 2 seconds 78 msec
