                         Program Version 4.2.0 -  RELEASE  -
|  1> # 12meoh.boyd.etal.mol8
|  2> ! MP2 def2-TZVP EnGrad TightSCF
|  3>
|  4> %pal
|  5>     nprocs 6
|  6> end
|  7>
|  8> %maxcore 8000
|  9>
| 10> %scf
| 11>     ConvForced true
| 12> end
| 13>
| 14> *xyz 0 1
| 15> O   3.570084754   2.361662577  -0.202416728
| 16> H   3.393280933   1.755669977   0.560634073
| 17> C   4.368082883   1.644741793  -1.143112807
| 18> H   4.552851717   2.311801738  -1.989632421
| 19> H   3.862427494   0.740851663  -1.508095690
| 20> H   5.333949674   1.357289092  -0.706288100
| 21> *
| 22>
| 23>                          ****END OF INPUT****

CARTESIAN COORDINATES (ANGSTROEM)
---------------------------------
  O      3.570085    2.361663   -0.202417
  H      3.393281    1.755670    0.560634
  C      4.368083    1.644742   -1.143113
  H      4.552852    2.311802   -1.989632
  H      3.862427    0.740852   -1.508096
  H      5.333950    1.357289   -0.706288

 Total Charge           Charge          ....    0
 Multiplicity           Mult            ....    1
 Number of Electrons    NEL             ....   18
 Basis Dimension        Dim             ....   86

ORBITAL ENERGIES
----------------

  NO   OCC          E(Eh)            E(eV)
   0   2.0000     -20.557145      -559.3884
   1   2.0000     -11.271923      -306.7246
   2   2.0000      -1.346642       -36.6440
   3   2.0000      -0.919977       -25.0338
   4   2.0000      -0.681844       -18.5539
   5   2.0000      -0.617109       -16.7924
   6   2.0000      -0.589647       -16.0451
   7   2.0000      -0.501627       -13.6500
   8   2.0000      -0.449779       -12.2391
   9   0.0000       0.135132         3.6771
  10   0.0000       0.176196         4.7945
  11   0.0000       0.229139         6.2352
  12   0.0000       0.229950         6.2573
  13   0.0000       0.254351         6.9212

MULLIKEN ATOMIC CHARGES
-----------------------
   0 O :   -0.495701
   1 H :    0.320514
   2 C :   -0.174356
   3 H :    0.129839
   4 H :    0.109903
   5 H :    0.109801
Sum of atomic charges:   -0.0000000

LOEWDIN ATOMIC CHARGES
----------------------
   0 O :   -0.109868
   1 H :    0.187576
   2 C :   -0.379001
   3 H :    0.110510
   4 H :    0.095309
   5 H :    0.095473

  Mayer bond orders larger than 0.100000
B(  0-O ,  1-H ) :   0.8440 B(  0-O ,  2-C ) :   0.9253 B(  2-C ,  3-H ) :   0.9379
B(  2-C ,  4-H ) :   0.9381 B(  2-C ,  5-H ) :   0.9394

MP2 TOTAL ENERGY:     -115.506870185 Eh
FINAL SINGLE POINT ENERGY      -115.506870184847

DIPOLE MOMENT
-------------
                                X             Y             Z
Electronic contribution:     -1.00219       1.01312       1.07840
Nuclear contribution   :      1.21902      -1.67685      -0.99417
                        -----------------------------------------
Total Dipole Moment    :      0.21683      -0.66373       0.08423
                        -----------------------------------------
Magnitude (a.u.)       :      0.70331
Magnitude (Debye)      :      1.78768

Rotational constants in cm-1:     4.191205     0.820649     0.789567
Rotational constants in MHz : 125649.176290 24602.435176 23670.613645

                             ****ORCA TERMINATED NORMALLY****
TOTAL RUN TIME: 0 days 0 hours 0 minutes 7 seconds 661 msec
