                         Program Version 3.0.3 - RELEASE   -
|  1> ! wB97X-D3 MA-Def2-TZVP def2-TZVP/J RIJCOSX TightSCF Grid4
|  2>
|  3> %pal nprocs 1 end
|  4>
|  5> %scf
|  6>         maxiter 400
|  7> end
|  8>
|  9> %cosmo
| 10>         SMD true
| 11>         solvent "WATER"
| 12> end
| 13>
| 14> * xyz  0  1
| 15> O  1.787730	1.285940	0.414557
| 16> H  1.135335	1.134551	1.199365
| 17> H  2.502962	1.850278	0.768507
| 18> O  0.007062	0.765842	2.238180
| 19> H  -0.781807	1.018988	1.671673
| 20> H  0.030584	-0.229028	2.110841
| 21> O  0.055589	-1.778603	1.365028
| 22> H  0.850898	-1.669841	0.716810
| 23> H  0.227303	-2.604383	1.858580
| 24> O  -1.880625	1.169615	0.366497
| 25> H  -1.996535	0.192260	0.063292
| 26> H  -2.785395	1.513130	0.503223
| 27> O  1.944987	-1.288645	-0.352107
| 28> H  1.338508	-1.169068	-1.142467
| 29> H  2.085140	-0.336874	-0.066818
| 30> O  -0.041160	1.845731	-1.481341
| 31> H  0.729812	1.801682	-0.841318
| 32> H  -0.821755	1.760726	-0.858013
| 33> O  0.036268	-0.673618	-2.144472
| 34> H  0.007175	0.343516	-1.980105
| 35> H  0.063609	-0.786029	-3.115192
| 36> O  -1.916564	-1.318782	-0.409593
| 37> H  -1.294855	-1.188480	-1.185539
| 38> H  -1.284267	-1.638905	0.300412
| 39> **                         ****END OF INPUT****

CARTESIAN COORDINATES (ANGSTROEM)
---------------------------------
  O      1.787730    1.285940    0.414557
  H      1.135335    1.134551    1.199365
  H      2.502962    1.850278    0.768507
  O      0.007062    0.765842    2.238180
  H     -0.781807    1.018988    1.671673
  H      0.030584   -0.229028    2.110841
  O      0.055589   -1.778603    1.365028
  H      0.850898   -1.669841    0.716810
  H      0.227303   -2.604383    1.858580
  O     -1.880625    1.169615    0.366497
  H     -1.996535    0.192260    0.063292
  H     -2.785395    1.513130    0.503223
  O      1.944987   -1.288645   -0.352107
  H      1.338508   -1.169068   -1.142467
  H      2.085140   -0.336874   -0.066818
  O     -0.041160    1.845731   -1.481341
  H      0.729812    1.801682   -0.841318
  H     -0.821755    1.760726   -0.858013
  O      0.036268   -0.673618   -2.144472
  H      0.007175    0.343516   -1.980105
  H      0.063609   -0.786029   -3.115192
  O     -1.916564   -1.318782   -0.409593
  H     -1.294855   -1.188480   -1.185539
  H     -1.284267   -1.638905    0.300412

 Total Charge           Charge          ....    0
 Multiplicity           Mult            ....    1
 Number of Electrons    NEL             ....   80
 Basis Dimension        Dim             ....  376

ORBITAL ENERGIES
----------------

  NO   OCC          E(Eh)            E(eV)
   0   2.0000     -19.239817      -523.5420
   1   2.0000     -19.239663      -523.5378
   2   2.0000     -19.239217      -523.5257
   3   2.0000     -19.239028      -523.5206
   4   2.0000     -19.229456      -523.2601
   5   2.0000     -19.228984      -523.2473
   6   2.0000     -19.228897      -523.2449
   7   2.0000     -19.228768      -523.2414
   8   2.0000      -1.147264       -31.2186
   9   2.0000      -1.130107       -30.7518
  10   2.0000      -1.127780       -30.6884
  11   2.0000      -1.127309       -30.6756
  12   2.0000      -1.108471       -30.1630
  13   2.0000      -1.108238       -30.1567
  14   2.0000      -1.105817       -30.0908
  15   2.0000      -1.089530       -29.6476
  16   2.0000      -0.639431       -17.3998
  17   2.0000      -0.638231       -17.3672
  18   2.0000      -0.635266       -17.2865
  19   2.0000      -0.634506       -17.2658
  20   2.0000      -0.623287       -16.9605
  21   2.0000      -0.622403       -16.9364
  22   2.0000      -0.615712       -16.7544
  23   2.0000      -0.615392       -16.7457
  24   2.0000      -0.568092       -15.4586
  25   2.0000      -0.528435       -14.3794
  26   2.0000      -0.528003       -14.3677
  27   2.0000      -0.525258       -14.2930
  28   2.0000      -0.494740       -13.4626
  29   2.0000      -0.491324       -13.3696
  30   2.0000      -0.491019       -13.3613
  31   2.0000      -0.456655       -12.4262
  32   2.0000      -0.423425       -11.5220
  33   2.0000      -0.423109       -11.5134
  34   2.0000      -0.422319       -11.4919
  35   2.0000      -0.421711       -11.4754
  36   2.0000      -0.415675       -11.3111
  37   2.0000      -0.415447       -11.3049
  38   2.0000      -0.413369       -11.2484
  39   2.0000      -0.411162       -11.1883
  40   0.0000       0.066787         1.8174
  41   0.0000       0.095828         2.6076
  42   0.0000       0.097401         2.6504
  43   0.0000       0.097647         2.6571
  44   0.0000       0.123456         3.3594

MULLIKEN ATOMIC CHARGES
-----------------------
   0 O :   -0.885876
   1 H :    0.423514
   2 H :    0.416796
   3 O :   -0.808152
   4 H :    0.425945
   5 H :    0.427529
   6 O :   -0.886652
   7 H :    0.425120
   8 H :    0.416730
   9 O :   -0.884337
  10 H :    0.423958
  11 H :    0.417259
  12 O :   -0.807475
  13 H :    0.426821
  14 H :    0.424858
  15 O :   -0.808147
  16 H :    0.426459
  17 H :    0.427243
  18 O :   -0.884559
  19 H :    0.422847
  20 H :    0.417351
  21 O :   -0.809469
  22 H :    0.427318
  23 H :    0.424919
Sum of atomic charges:   -0.0000000

LOEWDIN ATOMIC CHARGES
----------------------
   0 O :   -0.401078
   1 H :    0.198501
   2 H :    0.218754
   3 O :   -0.417474
   4 H :    0.199617
   5 H :    0.200387
   6 O :   -0.400766
   7 H :    0.198424
   8 H :    0.218698
   9 O :   -0.398835
  10 H :    0.198936
  11 H :    0.219195
  12 O :   -0.417250
  13 H :    0.200160
  14 H :    0.199949
  15 O :   -0.417334
  16 H :    0.200609
  17 H :    0.200431
  18 O :   -0.399651
  19 H :    0.198957
  20 H :    0.219155
  21 O :   -0.418764
  22 H :    0.199870
  23 H :    0.199509

  Mayer bond orders larger than 0.1
B(  0-O ,  1-H ) :   0.7363 B(  0-O ,  2-H ) :   0.8305 B(  1-H ,  3-O ) :   0.1268
B(  3-O ,  4-H ) :   0.8027 B(  3-O ,  5-H ) :   0.8022 B(  6-O ,  7-H ) :   0.7372
B(  6-O ,  8-H ) :   0.8305 B(  7-H , 12-O ) :   0.1238 B(  9-O , 10-H ) :   0.7395
B(  9-O , 11-H ) :   0.8302 B( 10-H , 21-O ) :   0.1221 B( 12-O , 13-H ) :   0.8024
B( 12-O , 14-H ) :   0.8027 B( 15-O , 16-H ) :   0.8032 B( 15-O , 17-H ) :   0.8030
B( 15-O , 19-H ) :   0.1234 B( 18-O , 19-H ) :   0.7393 B( 18-O , 20-H ) :   0.8299
B( 21-O , 22-H ) :   0.8026 B( 21-O , 23-H ) :   0.8035

Dispersion correction           -0.012609489
FINAL SINGLE POINT ENERGY      -611.670004759135

DIPOLE MOMENT
-------------
                                X             Y             Z
Electronic contribution:     -0.00357       0.00533      -0.00451
Nuclear contribution   :      0.01676      -0.01868       0.00812
                        -----------------------------------------
Total Dipole Moment    :      0.01319      -0.01334       0.00361
                        -----------------------------------------
Magnitude (a.u.)       :      0.01910
Magnitude (Debye)      :      0.04856

                             ****ORCA TERMINATED NORMALLY****
TOTAL RUN TIME: 0 days 0 hours 6 minutes 36 seconds 638 msec
