                         Program Version 4.2.0 -  RELEASE  -
|  1> # 12h2o.su.etal.mol1,9,10
|  2> ! MP2 def2-TZVP EnGrad TightSCF
|  3>
|  4> %pal
|  5>     nprocs 6
|  6> end
|  7>
|  8> %maxcore 8000
|  9>
| 10> %scf
| 11>     ConvForced true
| 12> end
| 13>
| 14> *xyz 0 1
| 15> O  -1.794470000  -0.923410000   2.768350000
| 16> H  -2.338250000  -1.359750000   3.430940000
| 17> H  -0.879480000  -1.303000000   2.865760000
| 18> O   0.741530000  -1.752130000   2.896280000
| 19> H   0.920500000  -2.036450000   1.984040000
| 20> H   1.242140000  -0.921210000   2.984230000
| 21> O  -0.923410000   1.794470000  -2.768350000
| 22> H  -1.359750000   2.338250000  -3.430940000
| 23> H  -1.303000000   0.879480000  -2.865760000
| 24> *
| 25>
| 26>                          ****END OF INPUT****

CARTESIAN COORDINATES (ANGSTROEM)
---------------------------------
  O     -1.794470   -0.923410    2.768350
  H     -2.338250   -1.359750    3.430940
  H     -0.879480   -1.303000    2.865760
  O      0.741530   -1.752130    2.896280
  H      0.920500   -2.036450    1.984040
  H      1.242140   -0.921210    2.984230
  O     -0.923410    1.794470   -2.768350
  H     -1.359750    2.338250   -3.430940
  H     -1.303000    0.879480   -2.865760

 Total Charge           Charge          ....    0
 Multiplicity           Mult            ....    1
 Number of Electrons    NEL             ....   30
 Basis Dimension        Dim             ....  129

ORBITAL ENERGIES
----------------

  NO   OCC          E(Eh)            E(eV)
   0   2.0000     -20.597096      -560.4755
   1   2.0000     -20.560278      -559.4736
   2   2.0000     -20.515267      -558.2488
   3   2.0000      -1.382362       -37.6160
   4   2.0000      -1.335623       -36.3441
   5   2.0000      -1.297718       -35.3127
   6   2.0000      -0.739938       -20.1347
   7   2.0000      -0.704072       -19.1588
   8   2.0000      -0.689196       -18.7540
   9   2.0000      -0.616828       -16.7847
  10   2.0000      -0.571569       -15.5532
  11   2.0000      -0.556560       -15.1448
  12   2.0000      -0.512733       -13.9522
  13   2.0000      -0.503408       -13.6984
  14   2.0000      -0.465569       -12.6688
  15   0.0000       0.112273         3.0551
  16   0.0000       0.128146         3.4870
  17   0.0000       0.177797         4.8381
  18   0.0000       0.184712         5.0263
  19   0.0000       0.197754         5.3812

MULLIKEN ATOMIC CHARGES
-----------------------
   0 O :   -0.729041
   1 H :    0.323918
   2 H :    0.362550
   3 O :   -0.677395
   4 H :    0.358839
   5 H :    0.361130
   6 O :   -0.681439
   7 H :    0.338422
   8 H :    0.343016
Sum of atomic charges:    0.0000000

LOEWDIN ATOMIC CHARGES
----------------------
   0 O :   -0.371189
   1 H :    0.147916
   2 H :    0.141187
   3 O :   -0.270867
   4 H :    0.175251
   5 H :    0.177703
   6 O :   -0.338705
   7 H :    0.157641
   8 H :    0.181063

  Mayer bond orders larger than 0.100000
B(  0-O ,  1-H ) :   0.8614 B(  0-O ,  2-H ) :   0.7911 B(  3-O ,  4-H ) :   0.8369
B(  3-O ,  5-H ) :   0.8351 B(  6-O ,  7-H ) :   0.8535 B(  6-O ,  8-H ) :   0.8457

MP2 TOTAL ENERGY:     -228.944544729 Eh
FINAL SINGLE POINT ENERGY      -228.944544729001

DIPOLE MOMENT
-------------
                                X             Y             Z
Electronic contribution:      0.27156       0.01559       0.10565
Nuclear contribution   :      0.19549      -0.53316      -0.68611
                        -----------------------------------------
Total Dipole Moment    :      0.46705      -0.51757      -0.58045
                        -----------------------------------------
Magnitude (a.u.)       :      0.90716
Magnitude (Debye)      :      2.30583

Rotational constants in cm-1:     0.263556     0.033110     0.029622
Rotational constants in MHz :  7901.206734   992.603902   888.037236

                             ****ORCA TERMINATED NORMALLY****
TOTAL RUN TIME: 0 days 0 hours 0 minutes 9 seconds 661 msec
