                         Program Version 4.2.0 -  RELEASE  -
|  1> # 12h2o.su.etal.mol1,3,5,9
|  2> ! MP2 def2-TZVP EnGrad TightSCF
|  3>
|  4> %pal
|  5>     nprocs 6
|  6> end
|  7>
|  8> %maxcore 8000
|  9>
| 10> %scf
| 11>     ConvForced true
| 12> end
| 13>
| 14> *xyz 0 1
| 15> O  -1.794470000  -0.923410000   2.768350000
| 16> H  -2.338250000  -1.359750000   3.430940000
| 17> H  -0.879480000  -1.303000000   2.865760000
| 18> O  -1.752130000  -0.741530000  -2.896280000
| 19> H  -2.036450000  -0.920500000  -1.984040000
| 20> H  -0.921210000  -1.242140000  -2.984230000
| 21> O   0.885520000  -1.737840000   0.052730000
| 22> H   1.284090000  -0.839590000   0.017130000
| 23> H   1.032320000  -2.090180000  -0.841890000
| 24> O   0.741530000  -1.752130000   2.896280000
| 25> H   0.920500000  -2.036450000   1.984040000
| 26> H   1.242140000  -0.921210000   2.984230000
| 27> *
| 28>
| 29>                          ****END OF INPUT****

CARTESIAN COORDINATES (ANGSTROEM)
---------------------------------
  O     -1.794470   -0.923410    2.768350
  H     -2.338250   -1.359750    3.430940
  H     -0.879480   -1.303000    2.865760
  O     -1.752130   -0.741530   -2.896280
  H     -2.036450   -0.920500   -1.984040
  H     -0.921210   -1.242140   -2.984230
  O      0.885520   -1.737840    0.052730
  H      1.284090   -0.839590    0.017130
  H      1.032320   -2.090180   -0.841890
  O      0.741530   -1.752130    2.896280
  H      0.920500   -2.036450    1.984040
  H      1.242140   -0.921210    2.984230

 Total Charge           Charge          ....    0
 Multiplicity           Mult            ....    1
 Number of Electrons    NEL             ....   40
 Basis Dimension        Dim             ....  172

ORBITAL ENERGIES
----------------

  NO   OCC          E(Eh)            E(eV)
   0   2.0000     -20.608027      -560.7729
   1   2.0000     -20.574695      -559.8659
   2   2.0000     -20.564088      -559.5773
   3   2.0000     -20.509404      -558.0892
   4   2.0000      -1.386858       -37.7383
   5   2.0000      -1.362016       -37.0623
   6   2.0000      -1.343236       -36.5513
   7   2.0000      -1.291646       -35.1475
   8   2.0000      -0.750086       -20.4109
   9   2.0000      -0.723538       -19.6885
  10   2.0000      -0.705968       -19.2104
  11   2.0000      -0.680860       -18.5271
  12   2.0000      -0.632578       -17.2133
  13   2.0000      -0.593521       -16.1505
  14   2.0000      -0.580752       -15.8031
  15   2.0000      -0.551193       -14.9987
  16   2.0000      -0.543361       -14.7856
  17   2.0000      -0.508043       -13.8246
  18   2.0000      -0.500330       -13.6147
  19   2.0000      -0.459929       -12.5153
  20   0.0000       0.078023         2.1231
  21   0.0000       0.125670         3.4197
  22   0.0000       0.163119         4.4387
  23   0.0000       0.175810         4.7840
  24   0.0000       0.184299         5.0150

MULLIKEN ATOMIC CHARGES
-----------------------
   0 O :   -0.735505
   1 H :    0.322135
   2 H :    0.367329
   3 O :   -0.671370
   4 H :    0.349051
   5 H :    0.321582
   6 O :   -0.688728
   7 H :    0.351093
   8 H :    0.348540
   9 O :   -0.689552
  10 H :    0.383712
  11 H :    0.341713
Sum of atomic charges:   -0.0000000

LOEWDIN ATOMIC CHARGES
----------------------
   0 O :   -0.374472
   1 H :    0.146881
   2 H :    0.141965
   3 O :   -0.329477
   4 H :    0.169776
   5 H :    0.158880
   6 O :   -0.313899
   7 H :    0.178227
   8 H :    0.169770
   9 O :   -0.275125
  10 H :    0.158969
  11 H :    0.168506

  Mayer bond orders larger than 0.100000
B(  0-O ,  1-H ) :   0.8623 B(  0-O ,  2-H ) :   0.7835 B(  3-O ,  4-H ) :   0.8456
B(  3-O ,  5-H ) :   0.8614 B(  6-O ,  7-H ) :   0.8386 B(  6-O ,  8-H ) :   0.8426
B(  9-O , 10-H ) :   0.8050 B(  9-O , 11-H ) :   0.8468

MP2 TOTAL ENERGY:     -305.266065928 Eh
FINAL SINGLE POINT ENERGY      -305.266065927748

DIPOLE MOMENT
-------------
                                X             Y             Z
Electronic contribution:      0.00276      -0.05026      -0.13824
Nuclear contribution   :      1.78355      -0.33544      -0.14168
                        -----------------------------------------
Total Dipole Moment    :      1.78631      -0.38570      -0.27992
                        -----------------------------------------
Magnitude (a.u.)       :      1.84879
Magnitude (Debye)      :      4.69925

Rotational constants in cm-1:     0.137317     0.040045     0.031277
Rotational constants in MHz :  4116.650358  1200.507799   937.648336

                             ****ORCA TERMINATED NORMALLY****
TOTAL RUN TIME: 0 days 0 hours 0 minutes 16 seconds 522 msec
