                         Program Version 4.2.0 -  RELEASE  -
|  1> # 12h2o.su.etal.mol0,1,3,5,6,9,10
|  2> ! MP2 def2-TZVP EnGrad TightSCF
|  3>
|  4> %pal
|  5>     nprocs 6
|  6> end
|  7>
|  8> %maxcore 8000
|  9>
| 10> %scf
| 11>     ConvForced true
| 12> end
| 13>
| 14> *xyz 0 1
| 15> O   1.794470000   0.923410000   2.768350000
| 16> H   2.338250000   1.359750000   3.430940000
| 17> H   0.879480000   1.303000000   2.865760000
| 18> O  -1.794470000  -0.923410000   2.768350000
| 19> H  -2.338250000  -1.359750000   3.430940000
| 20> H  -0.879480000  -1.303000000   2.865760000
| 21> O  -1.752130000  -0.741530000  -2.896280000
| 22> H  -2.036450000  -0.920500000  -1.984040000
| 23> H  -0.921210000  -1.242140000  -2.984230000
| 24> O   0.885520000  -1.737840000   0.052730000
| 25> H   1.284090000  -0.839590000   0.017130000
| 26> H   1.032320000  -2.090180000  -0.841890000
| 27> O   1.737840000   0.885520000  -0.052730000
| 28> H   2.090180000   1.032320000   0.841890000
| 29> H   0.839590000   1.284090000  -0.017130000
| 30> O   0.741530000  -1.752130000   2.896280000
| 31> H   0.920500000  -2.036450000   1.984040000
| 32> H   1.242140000  -0.921210000   2.984230000
| 33> O  -0.923410000   1.794470000  -2.768350000
| 34> H  -1.359750000   2.338250000  -3.430940000
| 35> H  -1.303000000   0.879480000  -2.865760000
| 36> *
| 37>
| 38>                          ****END OF INPUT****

CARTESIAN COORDINATES (ANGSTROEM)
---------------------------------
  O      1.794470    0.923410    2.768350
  H      2.338250    1.359750    3.430940
  H      0.879480    1.303000    2.865760
  O     -1.794470   -0.923410    2.768350
  H     -2.338250   -1.359750    3.430940
  H     -0.879480   -1.303000    2.865760
  O     -1.752130   -0.741530   -2.896280
  H     -2.036450   -0.920500   -1.984040
  H     -0.921210   -1.242140   -2.984230
  O      0.885520   -1.737840    0.052730
  H      1.284090   -0.839590    0.017130
  H      1.032320   -2.090180   -0.841890
  O      1.737840    0.885520   -0.052730
  H      2.090180    1.032320    0.841890
  H      0.839590    1.284090   -0.017130
  O      0.741530   -1.752130    2.896280
  H      0.920500   -2.036450    1.984040
  H      1.242140   -0.921210    2.984230
  O     -0.923410    1.794470   -2.768350
  H     -1.359750    2.338250   -3.430940
  H     -1.303000    0.879480   -2.865760

 Total Charge           Charge          ....    0
 Multiplicity           Mult            ....    1
 Number of Electrons    NEL             ....   70
 Basis Dimension        Dim             ....  301

ORBITAL ENERGIES
----------------

  NO   OCC          E(Eh)            E(eV)
   0   2.0000     -20.622023      -561.1538
   1   2.0000     -20.593703      -560.3831
   2   2.0000     -20.571349      -559.7749
   3   2.0000     -20.554491      -559.3161
   4   2.0000     -20.543745      -559.0237
   5   2.0000     -20.519394      -558.3611
   6   2.0000     -20.509432      -558.0900
   7   2.0000      -1.402572       -38.1659
   8   2.0000      -1.379009       -37.5247
   9   2.0000      -1.357163       -36.9303
  10   2.0000      -1.340525       -36.4775
  11   2.0000      -1.330553       -36.2062
  12   2.0000      -1.301602       -35.4184
  13   2.0000      -1.290802       -35.1245
  14   2.0000      -0.767866       -20.8947
  15   2.0000      -0.736444       -20.0397
  16   2.0000      -0.719227       -19.5712
  17   2.0000      -0.712358       -19.3842
  18   2.0000      -0.701682       -19.0937
  19   2.0000      -0.691693       -18.8219
  20   2.0000      -0.677094       -18.4247
  21   2.0000      -0.643908       -17.5216
  22   2.0000      -0.614965       -16.7340
  23   2.0000      -0.602081       -16.3835
  24   2.0000      -0.600444       -16.3389
  25   2.0000      -0.565037       -15.3754
  26   2.0000      -0.557243       -15.1633
  27   2.0000      -0.554511       -15.0890
  28   2.0000      -0.531193       -14.4545
  29   2.0000      -0.514011       -13.9870
  30   2.0000      -0.512272       -13.9396
  31   2.0000      -0.502848       -13.6832
  32   2.0000      -0.482259       -13.1229
  33   2.0000      -0.469750       -12.7825
  34   2.0000      -0.460367       -12.5272
  35   0.0000       0.087585         2.3833
  36   0.0000       0.103142         2.8066
  37   0.0000       0.153188         4.1685
  38   0.0000       0.162165         4.4127
  39   0.0000       0.174004         4.7349

MULLIKEN ATOMIC CHARGES
-----------------------
   0 O :   -0.724372
   1 H :    0.369031
   2 H :    0.379281
   3 O :   -0.745035
   4 H :    0.321985
   5 H :    0.369394
   6 O :   -0.679745
   7 H :    0.369194
   8 H :    0.352198
   9 O :   -0.725573
  10 H :    0.361456
  11 H :    0.329465
  12 O :   -0.695435
  13 H :    0.373582
  14 H :    0.359495
  15 O :   -0.715358
  16 H :    0.385963
  17 H :    0.355891
  18 O :   -0.733327
  19 H :    0.326085
  20 H :    0.365827
Sum of atomic charges:    0.0000000

LOEWDIN ATOMIC CHARGES
----------------------
   0 O :   -0.288533
   1 H :    0.170238
   2 H :    0.195365
   3 O :   -0.379867
   4 H :    0.146603
   5 H :    0.141408
   6 O :   -0.269968
   7 H :    0.178855
   8 H :    0.172782
   9 O :   -0.340642
  10 H :    0.145054
  11 H :    0.158571
  12 O :   -0.294066
  13 H :    0.150669
  14 H :    0.179074
  15 O :   -0.287586
  16 H :    0.158237
  17 H :    0.145255
  18 O :   -0.372910
  19 H :    0.149458
  20 H :    0.142003

  Mayer bond orders larger than 0.100000
B(  0-O ,  1-H ) :   0.8293 B(  0-O ,  2-H ) :   0.8128 B(  3-O ,  4-H ) :   0.8622
B(  3-O ,  5-H ) :   0.7685 B(  5-H , 15-O ) :   0.1038 B(  6-O ,  7-H ) :   0.8291
B(  6-O ,  8-H ) :   0.8394 B(  9-O , 10-H ) :   0.7684 B(  9-O , 11-H ) :   0.8541
B( 10-H , 12-O ) :   0.1031 B( 12-O , 13-H ) :   0.8105 B( 12-O , 14-H ) :   0.8303
B( 15-O , 16-H ) :   0.8005 B( 15-O , 17-H ) :   0.8212 B( 18-O , 19-H ) :   0.8599
B( 18-O , 20-H ) :   0.7855

MP2 TOTAL ENERGY:     -534.243877111 Eh
FINAL SINGLE POINT ENERGY      -534.243877110921

DIPOLE MOMENT
-------------
                                X             Y             Z
Electronic contribution:      0.33899      -0.02775      -0.10580
Nuclear contribution   :      0.34103       0.48867       0.63259
                        -----------------------------------------
Total Dipole Moment    :      0.68002       0.46092       0.52680
                        -----------------------------------------
Magnitude (a.u.)       :      0.97590
Magnitude (Debye)      :      2.48055

Rotational constants in cm-1:     0.041627     0.018419     0.015914
Rotational constants in MHz :  1247.942062   552.179991   477.101745

                             ****ORCA TERMINATED NORMALLY****
TOTAL RUN TIME: 0 days 0 hours 1 minutes 26 seconds 860 msec
