                         Program Version 4.2.0 -  RELEASE  -
|  1> # 12h2o.su.etal.mol0,1,2,4,6,7,8,11
|  2> ! MP2 def2-TZVP EnGrad TightSCF
|  3>
|  4> %pal
|  5>     nprocs 6
|  6> end
|  7>
|  8> %maxcore 8000
|  9>
| 10> %scf
| 11>     ConvForced true
| 12> end
| 13>
| 14> *xyz 0 1
| 15> O   1.794470000   0.923410000   2.768350000
| 16> H   2.338250000   1.359750000   3.430940000
| 17> H   0.879480000   1.303000000   2.865760000
| 18> O  -1.794470000  -0.923410000   2.768350000
| 19> H  -2.338250000  -1.359750000   3.430940000
| 20> H  -0.879480000  -1.303000000   2.865760000
| 21> O   0.923410000  -1.794470000  -2.768350000
| 22> H   1.359750000  -2.338250000  -3.430940000
| 23> H   1.303000000  -0.879480000  -2.865760000
| 24> O  -0.885520000   1.737840000   0.052730000
| 25> H  -1.032320000   2.090180000  -0.841890000
| 26> H  -1.284090000   0.839590000   0.017130000
| 27> O   1.737840000   0.885520000  -0.052730000
| 28> H   2.090180000   1.032320000   0.841890000
| 29> H   0.839590000   1.284090000  -0.017130000
| 30> O  -1.737840000  -0.885520000  -0.052730000
| 31> H  -2.090180000  -1.032320000   0.841890000
| 32> H  -0.839590000  -1.284090000  -0.017130000
| 33> O   1.752130000   0.741530000  -2.896280000
| 34> H   2.036450000   0.920500000  -1.984040000
| 35> H   0.921210000   1.242140000  -2.984230000
| 36> O  -0.741530000   1.752130000   2.896280000
| 37> H  -0.920500000   2.036450000   1.984040000
| 38> H  -1.242140000   0.921210000   2.984230000
| 39> *
| 40>
| 41>                          ****END OF INPUT****

CARTESIAN COORDINATES (ANGSTROEM)
---------------------------------
  O      1.794470    0.923410    2.768350
  H      2.338250    1.359750    3.430940
  H      0.879480    1.303000    2.865760
  O     -1.794470   -0.923410    2.768350
  H     -2.338250   -1.359750    3.430940
  H     -0.879480   -1.303000    2.865760
  O      0.923410   -1.794470   -2.768350
  H      1.359750   -2.338250   -3.430940
  H      1.303000   -0.879480   -2.865760
  O     -0.885520    1.737840    0.052730
  H     -1.032320    2.090180   -0.841890
  H     -1.284090    0.839590    0.017130
  O      1.737840    0.885520   -0.052730
  H      2.090180    1.032320    0.841890
  H      0.839590    1.284090   -0.017130
  O     -1.737840   -0.885520   -0.052730
  H     -2.090180   -1.032320    0.841890
  H     -0.839590   -1.284090   -0.017130
  O      1.752130    0.741530   -2.896280
  H      2.036450    0.920500   -1.984040
  H      0.921210    1.242140   -2.984230
  O     -0.741530    1.752130    2.896280
  H     -0.920500    2.036450    1.984040
  H     -1.242140    0.921210    2.984230

 Total Charge           Charge          ....    0
 Multiplicity           Mult            ....    1
 Number of Electrons    NEL             ....   80
 Basis Dimension        Dim             ....  344

ORBITAL ENERGIES
----------------

  NO   OCC          E(Eh)            E(eV)
   0   2.0000     -20.629711      -561.3630
   1   2.0000     -20.584478      -560.1321
   2   2.0000     -20.576277      -559.9090
   3   2.0000     -20.562991      -559.5474
   4   2.0000     -20.555816      -559.3522
   5   2.0000     -20.541314      -558.9576
   6   2.0000     -20.522176      -558.4368
   7   2.0000     -20.502297      -557.8959
   8   2.0000      -1.410325       -38.3769
   9   2.0000      -1.377764       -37.4909
  10   2.0000      -1.357727       -36.9456
  11   2.0000      -1.352740       -36.8099
  12   2.0000      -1.345455       -36.6117
  13   2.0000      -1.325277       -36.0626
  14   2.0000      -1.305978       -35.5375
  15   2.0000      -1.284139       -34.9432
  16   2.0000      -0.775687       -21.1075
  17   2.0000      -0.740384       -20.1469
  18   2.0000      -0.723845       -19.6968
  19   2.0000      -0.721836       -19.6422
  20   2.0000      -0.709132       -19.2965
  21   2.0000      -0.706016       -19.2117
  22   2.0000      -0.686911       -18.6918
  23   2.0000      -0.671558       -18.2740
  24   2.0000      -0.654215       -17.8021
  25   2.0000      -0.628969       -17.1151
  26   2.0000      -0.609737       -16.5918
  27   2.0000      -0.593773       -16.1574
  28   2.0000      -0.587868       -15.9967
  29   2.0000      -0.574401       -15.6303
  30   2.0000      -0.561324       -15.2744
  31   2.0000      -0.548315       -14.9204
  32   2.0000      -0.532700       -14.4955
  33   2.0000      -0.518781       -14.1168
  34   2.0000      -0.517661       -14.0863
  35   2.0000      -0.504492       -13.7279
  36   2.0000      -0.490074       -13.3356
  37   2.0000      -0.486965       -13.2510
  38   2.0000      -0.473636       -12.8883
  39   2.0000      -0.452788       -12.3210
  40   0.0000       0.083747         2.2789
  41   0.0000       0.109378         2.9763
  42   0.0000       0.147213         4.0059
  43   0.0000       0.162432         4.4200
  44   0.0000       0.175600         4.7783

MULLIKEN ATOMIC CHARGES
-----------------------
   0 O :   -0.744573
   1 H :    0.335525
   2 H :    0.370461
   3 O :   -0.727336
   4 H :    0.371760
   5 H :    0.380665
   6 O :   -0.738071
   7 H :    0.319816
   8 H :    0.371895
   9 O :   -0.735932
  10 H :    0.353284
  11 H :    0.375602
  12 O :   -0.748868
  13 H :    0.373876
  14 H :    0.336667
  15 O :   -0.699995
  16 H :    0.373609
  17 H :    0.368298
  18 O :   -0.693411
  19 H :    0.391799
  20 H :    0.328876
  21 O :   -0.713969
  22 H :    0.387216
  23 H :    0.362805
Sum of atomic charges:   -0.0000000

LOEWDIN ATOMIC CHARGES
----------------------
   0 O :   -0.345555
   1 H :    0.152865
   2 H :    0.142569
   3 O :   -0.289077
   4 H :    0.171599
   5 H :    0.195981
   6 O :   -0.375980
   7 H :    0.146282
   8 H :    0.143244
   9 O :   -0.297295
  10 H :    0.168177
  11 H :    0.147914
  12 O :   -0.349889
  13 H :    0.150790
  14 H :    0.133997
  15 O :   -0.291777
  16 H :    0.150601
  17 H :    0.181985
  18 O :   -0.279089
  19 H :    0.159977
  20 H :    0.161700
  21 O :   -0.284013
  22 H :    0.157183
  23 H :    0.147812

  Mayer bond orders larger than 0.100000
B(  0-O ,  1-H ) :   0.8512 B(  0-O ,  2-H ) :   0.7531 B(  2-H , 21-O ) :   0.1086
B(  3-O ,  4-H ) :   0.8276 B(  3-O ,  5-H ) :   0.8122 B(  6-O ,  7-H ) :   0.8632
B(  6-O ,  8-H ) :   0.7753 B(  9-O , 10-H ) :   0.8384 B(  9-O , 11-H ) :   0.7492
B( 11-H , 15-O ) :   0.1121 B( 12-O , 13-H ) :   0.8045 B( 12-O , 14-H ) :   0.7942
B( 15-O , 16-H ) :   0.8107 B( 15-O , 17-H ) :   0.8218 B( 18-O , 19-H ) :   0.7864
B( 18-O , 20-H ) :   0.8537 B( 21-O , 22-H ) :   0.8037 B( 21-O , 23-H ) :   0.8146

MP2 TOTAL ENERGY:     -610.584747680 Eh
FINAL SINGLE POINT ENERGY      -610.584747679846

DIPOLE MOMENT
-------------
                                X             Y             Z
Electronic contribution:     -0.45519      -0.02112       0.24772
Nuclear contribution   :     -0.79542      -0.03473       1.40687
                        -----------------------------------------
Total Dipole Moment    :     -1.25061      -0.05585       1.65459
                        -----------------------------------------
Magnitude (a.u.)       :      2.07480
Magnitude (Debye)      :      5.27373

Rotational constants in cm-1:     0.036858     0.018128     0.015057
Rotational constants in MHz :  1104.985535   543.461625   451.405347

                             ****ORCA TERMINATED NORMALLY****
TOTAL RUN TIME: 0 days 0 hours 3 minutes 4 seconds 32 msec
