                         Program Version 4.2.0 -  RELEASE  -
|  1> # 12h2o.su.etal.mol1,2,3,4,7,8,10
|  2> ! MP2 def2-TZVP EnGrad TightSCF
|  3>
|  4> %pal
|  5>     nprocs 6
|  6> end
|  7>
|  8> %maxcore 8000
|  9>
| 10> %scf
| 11>     ConvForced true
| 12> end
| 13>
| 14> *xyz 0 1
| 15> O  -1.794470000  -0.923410000   2.768350000
| 16> H  -2.338250000  -1.359750000   3.430940000
| 17> H  -0.879480000  -1.303000000   2.865760000
| 18> O   0.923410000  -1.794470000  -2.768350000
| 19> H   1.359750000  -2.338250000  -3.430940000
| 20> H   1.303000000  -0.879480000  -2.865760000
| 21> O  -1.752130000  -0.741530000  -2.896280000
| 22> H  -2.036450000  -0.920500000  -1.984040000
| 23> H  -0.921210000  -1.242140000  -2.984230000
| 24> O  -0.885520000   1.737840000   0.052730000
| 25> H  -1.032320000   2.090180000  -0.841890000
| 26> H  -1.284090000   0.839590000   0.017130000
| 27> O  -1.737840000  -0.885520000  -0.052730000
| 28> H  -2.090180000  -1.032320000   0.841890000
| 29> H  -0.839590000  -1.284090000  -0.017130000
| 30> O   1.752130000   0.741530000  -2.896280000
| 31> H   2.036450000   0.920500000  -1.984040000
| 32> H   0.921210000   1.242140000  -2.984230000
| 33> O  -0.923410000   1.794470000  -2.768350000
| 34> H  -1.359750000   2.338250000  -3.430940000
| 35> H  -1.303000000   0.879480000  -2.865760000
| 36> *
| 37>
| 38>                          ****END OF INPUT****

CARTESIAN COORDINATES (ANGSTROEM)
---------------------------------
  O     -1.794470   -0.923410    2.768350
  H     -2.338250   -1.359750    3.430940
  H     -0.879480   -1.303000    2.865760
  O      0.923410   -1.794470   -2.768350
  H      1.359750   -2.338250   -3.430940
  H      1.303000   -0.879480   -2.865760
  O     -1.752130   -0.741530   -2.896280
  H     -2.036450   -0.920500   -1.984040
  H     -0.921210   -1.242140   -2.984230
  O     -0.885520    1.737840    0.052730
  H     -1.032320    2.090180   -0.841890
  H     -1.284090    0.839590    0.017130
  O     -1.737840   -0.885520   -0.052730
  H     -2.090180   -1.032320    0.841890
  H     -0.839590   -1.284090   -0.017130
  O      1.752130    0.741530   -2.896280
  H      2.036450    0.920500   -1.984040
  H      0.921210    1.242140   -2.984230
  O     -0.923410    1.794470   -2.768350
  H     -1.359750    2.338250   -3.430940
  H     -1.303000    0.879480   -2.865760

 Total Charge           Charge          ....    0
 Multiplicity           Mult            ....    1
 Number of Electrons    NEL             ....   70
 Basis Dimension        Dim             ....  301

ORBITAL ENERGIES
----------------

  NO   OCC          E(Eh)            E(eV)
   0   2.0000     -20.600433      -560.5663
   1   2.0000     -20.581911      -560.0623
   2   2.0000     -20.565512      -559.6160
   3   2.0000     -20.553421      -559.2870
   4   2.0000     -20.548474      -559.1524
   5   2.0000     -20.547086      -559.1146
   6   2.0000     -20.493681      -557.6614
   7   2.0000      -1.380225       -37.5578
   8   2.0000      -1.366460       -37.1833
   9   2.0000      -1.359654       -36.9981
  10   2.0000      -1.346369       -36.6366
  11   2.0000      -1.334399       -36.3108
  12   2.0000      -1.324064       -36.0296
  13   2.0000      -1.278098       -34.7788
  14   2.0000      -0.745976       -20.2990
  15   2.0000      -0.731656       -19.9094
  16   2.0000      -0.722647       -19.6642
  17   2.0000      -0.716099       -19.4860
  18   2.0000      -0.711339       -19.3565
  19   2.0000      -0.701018       -19.0757
  20   2.0000      -0.663529       -18.0555
  21   2.0000      -0.631488       -17.1836
  22   2.0000      -0.617274       -16.7969
  23   2.0000      -0.600912       -16.3517
  24   2.0000      -0.587207       -15.9787
  25   2.0000      -0.577309       -15.7094
  26   2.0000      -0.561135       -15.2693
  27   2.0000      -0.544167       -14.8075
  28   2.0000      -0.535354       -14.5677
  29   2.0000      -0.509206       -13.8562
  30   2.0000      -0.506441       -13.7810
  31   2.0000      -0.498538       -13.5659
  32   2.0000      -0.493624       -13.4322
  33   2.0000      -0.490086       -13.3359
  34   2.0000      -0.444644       -12.0994
  35   0.0000       0.094451         2.5701
  36   0.0000       0.125804         3.4233
  37   0.0000       0.155038         4.2188
  38   0.0000       0.162534         4.4228
  39   0.0000       0.175476         4.7749

MULLIKEN ATOMIC CHARGES
-----------------------
   0 O :   -0.689133
   1 H :    0.355166
   2 H :    0.354652
   3 O :   -0.747721
   4 H :    0.341818
   5 H :    0.379756
   6 O :   -0.725644
   7 H :    0.384553
   8 H :    0.368555
   9 O :   -0.738263
  10 H :    0.356348
  11 H :    0.345243
  12 O :   -0.725709
  13 H :    0.387527
  14 H :    0.352963
  15 O :   -0.711410
  16 H :    0.357231
  17 H :    0.380589
  18 O :   -0.754324
  19 H :    0.345809
  20 H :    0.381996
Sum of atomic charges:   -0.0000000

LOEWDIN ATOMIC CHARGES
----------------------
   0 O :   -0.306015
   1 H :    0.165247
   2 H :    0.186242
   3 O :   -0.344508
   4 H :    0.155947
   5 H :    0.144996
   6 O :   -0.288296
   7 H :    0.155120
   8 H :    0.149660
   9 O :   -0.372536
  10 H :    0.141264
  11 H :    0.134965
  12 O :   -0.285027
  13 H :    0.157510
  14 H :    0.175589
  15 O :   -0.284094
  16 H :    0.172321
  17 H :    0.154670
  18 O :   -0.315699
  19 H :    0.156680
  20 H :    0.145965

  Mayer bond orders larger than 0.100000
B(  0-O ,  1-H ) :   0.8403 B(  0-O ,  2-H ) :   0.8347 B(  3-O ,  4-H ) :   0.8482
B(  3-O ,  5-H ) :   0.7469 B(  5-H , 15-O ) :   0.1117 B(  6-O ,  7-H ) :   0.8060
B(  6-O ,  8-H ) :   0.7921 B(  6-O , 20-H ) :   0.1218 B(  9-O , 10-H ) :   0.8268
B(  9-O , 11-H ) :   0.8150 B( 12-O , 13-H ) :   0.7921 B( 12-O , 14-H ) :   0.8315
B( 15-O , 16-H ) :   0.8362 B( 15-O , 17-H ) :   0.7849 B( 18-O , 19-H ) :   0.8426
B( 18-O , 20-H ) :   0.7279

MP2 TOTAL ENERGY:     -534.265466114 Eh
FINAL SINGLE POINT ENERGY      -534.265466113553

DIPOLE MOMENT
-------------
                                X             Y             Z
Electronic contribution:     -0.17513       0.04189       0.14465
Nuclear contribution   :      0.30943      -1.58749       0.73962
                        -----------------------------------------
Total Dipole Moment    :      0.13430      -1.54559       0.88427
                        -----------------------------------------
Magnitude (a.u.)       :      1.78573
Magnitude (Debye)      :      4.53896

Rotational constants in cm-1:     0.048185     0.022076     0.019864
Rotational constants in MHz :  1444.555761   661.831731   595.518302

                             ****ORCA TERMINATED NORMALLY****
TOTAL RUN TIME: 0 days 0 hours 2 minutes 3 seconds 335 msec
