                         Program Version 4.2.0 -  RELEASE  -
|  1> ! MP2 def2-TZVP EnGrad TightSCF FrozenCore
|  2>
|  3> %pal
|  4>     nprocs 12
|  5> end
|  6>
|  7> %maxcore 8000
|  8>
|  9> %scf
| 10>     ConvForced true
| 11> end
| 12>
| 13> *xyz 0 1
| 14> C     3.439479    -2.031324    -0.288962
| 15> H     3.901774    -2.953132     0.073785
| 16> H     4.108560    -1.527140    -0.990029
| 17> H     2.501248    -2.262033    -0.800642
| 18> C     3.152649    -1.143846     0.834024
| 19> N     2.932515    -0.450548     1.740616
| 20> C    -0.295125    -0.623788     2.720233
| 21> H    -0.040384     0.350631     3.144023
| 22> H     0.357551    -0.800981     1.862099
| 23> H    -0.131121    -1.401247     3.470786
| 24> C    -1.687412    -0.633890     2.283098
| 25> N    -2.797266    -0.661930     1.937803
| 26> C    -2.498150    -2.589430    -0.895431
| 27> H    -2.560051    -3.677786    -0.813575
| 28> H    -2.850990    -2.264632    -1.876914
| 29> H    -3.125872    -2.123089    -0.130753
| 30> C    -1.116274    -2.156484    -0.705938
| 31> N    -0.010126    -1.832066    -0.554890
| 32> C    -3.439470     2.031320     0.288991
| 33> H    -2.501236     2.262010     0.800674
| 34> H    -4.108557     1.527128     0.990047
| 35> H    -3.901756     2.953140    -0.073738
| 36> C    -3.152647     1.143861    -0.834012
| 37> N    -2.932516     0.450579    -1.740618
| 38> C     0.295121     0.623782    -2.720236
| 39> H    -0.357559     0.800972    -1.862105
| 40> H     0.040375    -0.350632    -3.144035
| 41> H     0.131123     1.401248    -3.470785
| 42> C     1.687407     0.633872    -2.283097
| 43> N     2.797261     0.661903    -1.937798
| 44> C     2.498151     2.589441     0.895398
| 45> H     2.850995     2.264679     1.876891
| 46> H     2.560049     3.677794     0.813502
| 47> H     3.125872     2.123076     0.130735
| 48> C     1.116275     2.156485     0.705926
| 49> N     0.010127     1.832060     0.554899
| 50> *
| 51>
| 52>                          ****END OF INPUT****

CARTESIAN COORDINATES (ANGSTROEM)
---------------------------------
  C      3.439479   -2.031324   -0.288962
  H      3.901774   -2.953132    0.073785
  H      4.108560   -1.527140   -0.990029
  H      2.501248   -2.262033   -0.800642
  C      3.152649   -1.143846    0.834024
  N      2.932515   -0.450548    1.740616
  C     -0.295125   -0.623788    2.720233
  H     -0.040384    0.350631    3.144023
  H      0.357551   -0.800981    1.862099
  H     -0.131121   -1.401247    3.470786
  C     -1.687412   -0.633890    2.283098
  N     -2.797266   -0.661930    1.937803
  C     -2.498150   -2.589430   -0.895431
  H     -2.560051   -3.677786   -0.813575
  H     -2.850990   -2.264632   -1.876914
  H     -3.125872   -2.123089   -0.130753
  C     -1.116274   -2.156484   -0.705938
  N     -0.010126   -1.832066   -0.554890
  C     -3.439470    2.031320    0.288991
  H     -2.501236    2.262010    0.800674
  H     -4.108557    1.527128    0.990047
  H     -3.901756    2.953140   -0.073738
  C     -3.152647    1.143861   -0.834012
  N     -2.932516    0.450579   -1.740618
  C      0.295121    0.623782   -2.720236
  H     -0.357559    0.800972   -1.862105
  H      0.040375   -0.350632   -3.144035
  H      0.131123    1.401248   -3.470785
  C      1.687407    0.633872   -2.283097
  N      2.797261    0.661903   -1.937798
  C      2.498151    2.589441    0.895398
  H      2.850995    2.264679    1.876891
  H      2.560049    3.677794    0.813502
  H      3.125872    2.123076    0.130735
  C      1.116275    2.156485    0.705926
  N      0.010127    1.832060    0.554899

 Total Charge           Charge          ....    0
 Multiplicity           Mult            ....    1
 Number of Electrons    NEL             ....  132
 Basis Dimension        Dim             ....  666

ORBITAL ENERGIES
----------------

  NO   OCC          E(Eh)            E(eV)
   0   2.0000     -15.563969      -423.5171
   1   2.0000     -15.563969      -423.5171
   2   2.0000     -15.559379      -423.3922
   3   2.0000     -15.559379      -423.3922
   4   2.0000     -15.558743      -423.3749
   5   2.0000     -15.558743      -423.3749
   6   2.0000     -11.279516      -306.9312
   7   2.0000     -11.279516      -306.9312
   8   2.0000     -11.274196      -306.7865
   9   2.0000     -11.274195      -306.7864
  10   2.0000     -11.273782      -306.7752
  11   2.0000     -11.273781      -306.7752
  12   2.0000     -11.261332      -306.4364
  13   2.0000     -11.261332      -306.4364
  14   2.0000     -11.258348      -306.3552
  15   2.0000     -11.258348      -306.3552
  16   2.0000     -11.253536      -306.2243
  17   2.0000     -11.253536      -306.2243
  18   2.0000      -1.215156       -33.0661
  19   2.0000      -1.213845       -33.0304
  20   2.0000      -1.209295       -32.9066
  21   2.0000      -1.208714       -32.8908
  22   2.0000      -1.207781       -32.8654
  23   2.0000      -1.207464       -32.8568
  24   2.0000      -1.022069       -27.8119
  25   2.0000      -1.021485       -27.7960
  26   2.0000      -1.018303       -27.7094
  27   2.0000      -1.018122       -27.7045
  28   2.0000      -1.014624       -27.6093
  29   2.0000      -1.013867       -27.5887
  30   2.0000      -0.682903       -18.5827
  31   2.0000      -0.682880       -18.5821
  32   2.0000      -0.678258       -18.4563
  33   2.0000      -0.678233       -18.4557
  34   2.0000      -0.674645       -18.3580
  35   2.0000      -0.674506       -18.3542
  36   2.0000      -0.619996       -16.8709
  37   2.0000      -0.617120       -16.7927
  38   2.0000      -0.614131       -16.7114
  39   2.0000      -0.614056       -16.7093
  40   2.0000      -0.612104       -16.6562
  41   2.0000      -0.611745       -16.6464
  42   2.0000      -0.608784       -16.5659
  43   2.0000      -0.606610       -16.5067
  44   2.0000      -0.601639       -16.3714
  45   2.0000      -0.600653       -16.3446
  46   2.0000      -0.594987       -16.1904
  47   2.0000      -0.594219       -16.1695
  48   2.0000      -0.553074       -15.0499
  49   2.0000      -0.551612       -15.0101
  50   2.0000      -0.550027       -14.9670
  51   2.0000      -0.549716       -14.9585
  52   2.0000      -0.546967       -14.8837
  53   2.0000      -0.544714       -14.8224
  54   2.0000      -0.461954       -12.5704
  55   2.0000      -0.460612       -12.5339
  56   2.0000      -0.456790       -12.4299
  57   2.0000      -0.455672       -12.3995
  58   2.0000      -0.454760       -12.3746
  59   2.0000      -0.453171       -12.3314
  60   2.0000      -0.450992       -12.2721
  61   2.0000      -0.450611       -12.2618
  62   2.0000      -0.449427       -12.2295
  63   2.0000      -0.447456       -12.1759
  64   2.0000      -0.442548       -12.0423
  65   2.0000      -0.441795       -12.0219
  66   0.0000       0.129256         3.5172
  67   0.0000       0.148529         4.0417
  68   0.0000       0.151826         4.1314
  69   0.0000       0.155777         4.2389
  70   0.0000       0.161349         4.3905

MULLIKEN ATOMIC CHARGES
-----------------------
   0 C :   -0.287238
   1 H :    0.165074
   2 H :    0.182933
   3 H :    0.187367
   4 C :   -0.068601
   5 N :   -0.180756
   6 C :   -0.287901
   7 H :    0.162343
   8 H :    0.206603
   9 H :    0.168166
  10 C :   -0.064446
  11 N :   -0.186350
  12 C :   -0.277335
  13 H :    0.166356
  14 H :    0.182221
  15 H :    0.198522
  16 C :   -0.063342
  17 N :   -0.203615
  18 C :   -0.287238
  19 H :    0.187367
  20 H :    0.182933
  21 H :    0.165074
  22 C :   -0.068600
  23 N :   -0.180758
  24 C :   -0.287903
  25 H :    0.206603
  26 H :    0.162343
  27 H :    0.168166
  28 C :   -0.064442
  29 N :   -0.186352
  30 C :   -0.277334
  31 H :    0.182220
  32 H :    0.166355
  33 H :    0.198522
  34 C :   -0.063343
  35 N :   -0.203614
Sum of atomic charges:   -0.0000000

LOEWDIN ATOMIC CHARGES
----------------------
   0 C :   -0.287026
   1 H :    0.145570
   2 H :    0.152966
   3 H :    0.152422
   4 C :   -0.199183
   5 N :    0.027871
   6 C :   -0.283352
   7 H :    0.151308
   8 H :    0.155644
   9 H :    0.148487
  10 C :   -0.198775
  11 N :    0.024452
  12 C :   -0.283374
  13 H :    0.146198
  14 H :    0.153602
  15 H :    0.156335
  16 C :   -0.195990
  17 N :    0.032843
  18 C :   -0.287026
  19 H :    0.152422
  20 H :    0.152966
  21 H :    0.145570
  22 C :   -0.199182
  23 N :    0.027870
  24 C :   -0.283352
  25 H :    0.155644
  26 H :    0.151308
  27 H :    0.148487
  28 C :   -0.198774
  29 N :    0.024453
  30 C :   -0.283374
  31 H :    0.153602
  32 H :    0.146198
  33 H :    0.156334
  34 C :   -0.195990
  35 N :    0.032843

  Mayer bond orders larger than 0.100000
B(  0-C ,  1-H ) :   0.9113 B(  0-C ,  2-H ) :   0.9148 B(  0-C ,  3-H ) :   0.9116
B(  0-C ,  4-C ) :   0.8925 B(  4-C ,  5-N ) :   2.7446 B(  6-C ,  7-H ) :   0.9186
B(  6-C ,  8-H ) :   0.9053 B(  6-C ,  9-H ) :   0.9109 B(  6-C , 10-C ) :   0.8997
B( 10-C , 11-N ) :   2.7287 B( 12-C , 13-H ) :   0.9103 B( 12-C , 14-H ) :   0.9146
B( 12-C , 15-H ) :   0.9082 B( 12-C , 16-C ) :   0.8879 B( 16-C , 17-N ) :   2.6866
B( 18-C , 19-H ) :   0.9116 B( 18-C , 20-H ) :   0.9148 B( 18-C , 21-H ) :   0.9113
B( 18-C , 22-C ) :   0.8925 B( 22-C , 23-N ) :   2.7446 B( 24-C , 25-H ) :   0.9053
B( 24-C , 26-H ) :   0.9186 B( 24-C , 27-H ) :   0.9109 B( 24-C , 28-C ) :   0.8997
B( 28-C , 29-N ) :   2.7287 B( 30-C , 31-H ) :   0.9146 B( 30-C , 32-H ) :   0.9103
B( 30-C , 33-H ) :   0.9082 B( 30-C , 34-C ) :   0.8879 B( 34-C , 35-N ) :   2.6866

MP2 TOTAL ENERGY:     -794.956053660 Eh
FINAL SINGLE POINT ENERGY      -794.956053660352

DIPOLE MOMENT
-------------
                                X             Y             Z
Electronic contribution:     -0.00001      -0.00001       0.00002
Nuclear contribution   :      0.00002       0.00001      -0.00004
                        -----------------------------------------
Total Dipole Moment    :      0.00001       0.00000      -0.00001
                        -----------------------------------------
Magnitude (a.u.)       :      0.00002
Magnitude (Debye)      :      0.00004

Rotational constants in cm-1:     0.013665     0.008573     0.008479
Rotational constants in MHz :   409.660970   257.023081   254.205515

                             ****ORCA TERMINATED NORMALLY****
TOTAL RUN TIME: 0 days 0 hours 33 minutes 14 seconds 711 msec
