                         Program Version 4.2.0 -  RELEASE  -
|  1> # 12h2o.su.etal.mol0,2,5,7,8,9,10
|  2> ! MP2 def2-TZVP EnGrad TightSCF
|  3>
|  4> %pal
|  5>     nprocs 6
|  6> end
|  7>
|  8> %maxcore 8000
|  9>
| 10> %scf
| 11>     ConvForced true
| 12> end
| 13>
| 14> *xyz 0 1
| 15> O   1.794470000   0.923410000   2.768350000
| 16> H   2.338250000   1.359750000   3.430940000
| 17> H   0.879480000   1.303000000   2.865760000
| 18> O   0.923410000  -1.794470000  -2.768350000
| 19> H   1.359750000  -2.338250000  -3.430940000
| 20> H   1.303000000  -0.879480000  -2.865760000
| 21> O   0.885520000  -1.737840000   0.052730000
| 22> H   1.284090000  -0.839590000   0.017130000
| 23> H   1.032320000  -2.090180000  -0.841890000
| 24> O  -1.737840000  -0.885520000  -0.052730000
| 25> H  -2.090180000  -1.032320000   0.841890000
| 26> H  -0.839590000  -1.284090000  -0.017130000
| 27> O   1.752130000   0.741530000  -2.896280000
| 28> H   2.036450000   0.920500000  -1.984040000
| 29> H   0.921210000   1.242140000  -2.984230000
| 30> O   0.741530000  -1.752130000   2.896280000
| 31> H   0.920500000  -2.036450000   1.984040000
| 32> H   1.242140000  -0.921210000   2.984230000
| 33> O  -0.923410000   1.794470000  -2.768350000
| 34> H  -1.359750000   2.338250000  -3.430940000
| 35> H  -1.303000000   0.879480000  -2.865760000
| 36> *
| 37>
| 38>                          ****END OF INPUT****

CARTESIAN COORDINATES (ANGSTROEM)
---------------------------------
  O      1.794470    0.923410    2.768350
  H      2.338250    1.359750    3.430940
  H      0.879480    1.303000    2.865760
  O      0.923410   -1.794470   -2.768350
  H      1.359750   -2.338250   -3.430940
  H      1.303000   -0.879480   -2.865760
  O      0.885520   -1.737840    0.052730
  H      1.284090   -0.839590    0.017130
  H      1.032320   -2.090180   -0.841890
  O     -1.737840   -0.885520   -0.052730
  H     -2.090180   -1.032320    0.841890
  H     -0.839590   -1.284090   -0.017130
  O      1.752130    0.741530   -2.896280
  H      2.036450    0.920500   -1.984040
  H      0.921210    1.242140   -2.984230
  O      0.741530   -1.752130    2.896280
  H      0.920500   -2.036450    1.984040
  H      1.242140   -0.921210    2.984230
  O     -0.923410    1.794470   -2.768350
  H     -1.359750    2.338250   -3.430940
  H     -1.303000    0.879480   -2.865760

 Total Charge           Charge          ....    0
 Multiplicity           Mult            ....    1
 Number of Electrons    NEL             ....   70
 Basis Dimension        Dim             ....  301

ORBITAL ENERGIES
----------------

  NO   OCC          E(Eh)            E(eV)
   0   2.0000     -20.592359      -560.3466
   1   2.0000     -20.590549      -560.2973
   2   2.0000     -20.584960      -560.1452
   3   2.0000     -20.571989      -559.7923
   4   2.0000     -20.551688      -559.2398
   5   2.0000     -20.515185      -558.2466
   6   2.0000     -20.506342      -558.0059
   7   2.0000      -1.377853       -37.4933
   8   2.0000      -1.369999       -37.2796
   9   2.0000      -1.364944       -37.1420
  10   2.0000      -1.359558       -36.9955
  11   2.0000      -1.333126       -36.2762
  12   2.0000      -1.296154       -35.2701
  13   2.0000      -1.291651       -35.1476
  14   2.0000      -0.741724       -20.1833
  15   2.0000      -0.737034       -20.0557
  16   2.0000      -0.727772       -19.8037
  17   2.0000      -0.722574       -19.6622
  18   2.0000      -0.717170       -19.5152
  19   2.0000      -0.673370       -18.3233
  20   2.0000      -0.668326       -18.1861
  21   2.0000      -0.629147       -17.1200
  22   2.0000      -0.613763       -16.7014
  23   2.0000      -0.603140       -16.4123
  24   2.0000      -0.594294       -16.1716
  25   2.0000      -0.573143       -15.5960
  26   2.0000      -0.554434       -15.0869
  27   2.0000      -0.541172       -14.7260
  28   2.0000      -0.532533       -14.4910
  29   2.0000      -0.522247       -14.2111
  30   2.0000      -0.517591       -14.0844
  31   2.0000      -0.502865       -13.6837
  32   2.0000      -0.500718       -13.6252
  33   2.0000      -0.463865       -12.6224
  34   2.0000      -0.456073       -12.4104
  35   0.0000       0.091516         2.4903
  36   0.0000       0.113640         3.0923
  37   0.0000       0.133056         3.6206
  38   0.0000       0.155395         4.2285
  39   0.0000       0.168854         4.5947

MULLIKEN ATOMIC CHARGES
-----------------------
   0 O :   -0.700551
   1 H :    0.354854
   2 H :    0.363951
   3 O :   -0.739362
   4 H :    0.340319
   5 H :    0.369135
   6 O :   -0.718566
   7 H :    0.337475
   8 H :    0.388746
   9 O :   -0.728540
  10 H :    0.330866
  11 H :    0.363816
  12 O :   -0.698331
  13 H :    0.347447
  14 H :    0.380857
  15 O :   -0.726871
  16 H :    0.366260
  17 H :    0.341233
  18 O :   -0.705117
  19 H :    0.352878
  20 H :    0.379501
Sum of atomic charges:   -0.0000000

LOEWDIN ATOMIC CHARGES
----------------------
   0 O :   -0.313694
   1 H :    0.164357
   2 H :    0.189498
   3 O :   -0.340457
   4 H :    0.155593
   5 H :    0.142571
   6 O :   -0.282674
   7 H :    0.167829
   8 H :    0.156738
   9 O :   -0.366846
  10 H :    0.159136
  11 H :    0.142299
  12 O :   -0.279444
  13 H :    0.167087
  14 H :    0.156403
  15 O :   -0.355209
  16 H :    0.147550
  17 H :    0.140215
  18 O :   -0.310709
  19 H :    0.164414
  20 H :    0.195342

  Mayer bond orders larger than 0.100000
B(  0-O ,  1-H ) :   0.8405 B(  0-O ,  2-H ) :   0.8280 B(  3-O ,  4-H ) :   0.8490
B(  3-O ,  5-H ) :   0.7576 B(  5-H , 12-O ) :   0.1012 B(  6-O ,  7-H ) :   0.8399
B(  6-O ,  8-H ) :   0.7828 B(  9-O , 10-H ) :   0.8555 B(  9-O , 11-H ) :   0.7964
B( 12-O , 13-H ) :   0.8439 B( 12-O , 14-H ) :   0.7869 B( 15-O , 16-H ) :   0.8254
B( 15-O , 17-H ) :   0.8320 B( 18-O , 19-H ) :   0.8411 B( 18-O , 20-H ) :   0.8149

MP2 TOTAL ENERGY:     -534.245346800 Eh
FINAL SINGLE POINT ENERGY      -534.245346800012

DIPOLE MOMENT
-------------
                                X             Y             Z
Electronic contribution:      0.02884       0.17884      -0.28698
Nuclear contribution   :      0.71005       1.70022      -0.63259
                        -----------------------------------------
Total Dipole Moment    :      0.73889       1.87906      -0.91957
                        -----------------------------------------
Magnitude (a.u.)       :      2.21866
Magnitude (Debye)      :      5.63938

Rotational constants in cm-1:     0.040487     0.018364     0.017515
Rotational constants in MHz :  1213.784496   550.542205   525.081832

                             ****ORCA TERMINATED NORMALLY****
TOTAL RUN TIME: 0 days 0 hours 2 minutes 10 seconds 971 msec
