                         Program Version 4.2.0 -  RELEASE  -
|  1> # 12meoh.boyd.etal.mol2,10,11
|  2> ! MP2 def2-TZVP EnGrad TightSCF
|  3>
|  4> %pal
|  5>     nprocs 6
|  6> end
|  7>
|  8> %maxcore 8000
|  9>
| 10> %scf
| 11>     ConvForced true
| 12> end
| 13>
| 14> *xyz 0 1
| 15> O  -3.839777402   2.233595098   0.660436763
| 16> H  -2.958345897   1.907036203   0.973588449
| 17> C  -3.600368059   3.168790682  -0.390480452
| 18> H  -4.551709193   3.344148967  -0.901254863
| 19> H  -2.868237594   2.789240199  -1.113617525
| 20> H  -3.243594915   4.128998607   0.009549480
| 21> O  -5.201143618   0.064582726  -0.172223772
| 22> H  -4.686891530   0.869258890   0.107806143
| 23> C  -6.513192168   0.171391798   0.359883449
| 24> H  -7.049381312  -0.749234190   0.111361174
| 25> H  -7.057741163   1.017801101  -0.081819420
| 26> H  -6.514770575   0.292264928   1.453058834
| 27> O   3.252955559   0.588596242   1.858934315
| 28> H   3.621209177  -0.251605199   1.476063364
| 29> C   4.040824528   0.944288422   2.989639460
| 30> H   3.670521436   1.902573549   3.363847391
| 31> H   5.103749934   1.055868619   2.734277559
| 32> H   3.948540682   0.200279590   3.792908518
| 33> *
| 34>
| 35>                          ****END OF INPUT****

CARTESIAN COORDINATES (ANGSTROEM)
---------------------------------
  O     -3.839777    2.233595    0.660437
  H     -2.958346    1.907036    0.973588
  C     -3.600368    3.168791   -0.390480
  H     -4.551709    3.344149   -0.901255
  H     -2.868238    2.789240   -1.113618
  H     -3.243595    4.128999    0.009549
  O     -5.201144    0.064583   -0.172224
  H     -4.686892    0.869259    0.107806
  C     -6.513192    0.171392    0.359883
  H     -7.049381   -0.749234    0.111361
  H     -7.057741    1.017801   -0.081819
  H     -6.514771    0.292265    1.453059
  O      3.252956    0.588596    1.858934
  H      3.621209   -0.251605    1.476063
  C      4.040825    0.944288    2.989639
  H      3.670521    1.902574    3.363847
  H      5.103750    1.055869    2.734278
  H      3.948541    0.200280    3.792909

 Total Charge           Charge          ....    0
 Multiplicity           Mult            ....    1
 Number of Electrons    NEL             ....   54
 Basis Dimension        Dim             ....  258

ORBITAL ENERGIES
----------------

  NO   OCC          E(Eh)            E(eV)
   0   2.0000     -20.587078      -560.2029
   1   2.0000     -20.561074      -559.4953
   2   2.0000     -20.512007      -558.1601
   3   2.0000     -11.287982      -307.1616
   4   2.0000     -11.274987      -306.8080
   5   2.0000     -11.246134      -306.0229
   6   2.0000      -1.380794       -37.5733
   7   2.0000      -1.350379       -36.7457
   8   2.0000      -1.309595       -35.6359
   9   2.0000      -0.939649       -25.5691
  10   2.0000      -0.923137       -25.1198
  11   2.0000      -0.892595       -24.2888
  12   2.0000      -0.712686       -19.3932
  13   2.0000      -0.685272       -18.6472
  14   2.0000      -0.672313       -18.2946
  15   2.0000      -0.630738       -17.1632
  16   2.0000      -0.620454       -16.8834
  17   2.0000      -0.607268       -16.5246
  18   2.0000      -0.594617       -16.1803
  19   2.0000      -0.587763       -15.9938
  20   2.0000      -0.559873       -15.2349
  21   2.0000      -0.526965       -14.3394
  22   2.0000      -0.503814       -13.7095
  23   2.0000      -0.486742       -13.2449
  24   2.0000      -0.453016       -12.3272
  25   2.0000      -0.452781       -12.3208
  26   2.0000      -0.414177       -11.2703
  27   0.0000       0.123646         3.3646
  28   0.0000       0.132180         3.5968
  29   0.0000       0.164293         4.4706
  30   0.0000       0.172745         4.7006
  31   0.0000       0.173202         4.7131

MULLIKEN ATOMIC CHARGES
-----------------------
   0 O :   -0.512055
   1 H :    0.345106
   2 C :   -0.192424
   3 H :    0.142566
   4 H :    0.133107
   5 H :    0.125583
   6 O :   -0.534739
   7 H :    0.338997
   8 C :   -0.157009
   9 H :    0.119012
  10 H :    0.091519
  11 H :    0.100337
  12 O :   -0.499882
  13 H :    0.322946
  14 C :   -0.172680
  15 H :    0.128216
  16 H :    0.110726
  17 H :    0.110674
Sum of atomic charges:    0.0000000

LOEWDIN ATOMIC CHARGES
----------------------
   0 O :   -0.074956
   1 H :    0.198842
   2 C :   -0.370927
   3 H :    0.115153
   4 H :    0.103882
   5 H :    0.104114
   6 O :   -0.124346
   7 H :    0.156512
   8 C :   -0.395965
   9 H :    0.104970
  10 H :    0.090000
  11 H :    0.092722
  12 O :   -0.110471
  13 H :    0.190544
  14 C :   -0.381632
  15 H :    0.109981
  16 H :    0.095836
  17 H :    0.095742

  Mayer bond orders larger than 0.100000
B(  0-O ,  1-H ) :   0.8276 B(  0-O ,  2-C ) :   0.8710 B(  0-O ,  7-H ) :   0.1030
B(  2-C ,  3-H ) :   0.9396 B(  2-C ,  4-H ) :   0.9411 B(  2-C ,  5-H ) :   0.9327
B(  6-O ,  7-H ) :   0.7890 B(  6-O ,  8-C ) :   0.9424 B(  8-C ,  9-H ) :   0.9415
B(  8-C , 10-H ) :   0.9367 B(  8-C , 11-H ) :   0.9411 B( 12-O , 13-H ) :   0.8417
B( 12-O , 14-C ) :   0.9252 B( 14-C , 15-H ) :   0.9377 B( 14-C , 16-H ) :   0.9390
B( 14-C , 17-H ) :   0.9389

MP2 TOTAL ENERGY:     -346.530003245 Eh
FINAL SINGLE POINT ENERGY      -346.530003244912

DIPOLE MOMENT
-------------
                                X             Y             Z
Electronic contribution:      0.41228      -1.43635      -0.82209
Nuclear contribution   :      0.86545       2.09121       1.21546
                        -----------------------------------------
Total Dipole Moment    :      1.27773       0.65487       0.39338
                        -----------------------------------------
Magnitude (a.u.)       :      1.48869
Magnitude (Debye)      :      3.78394

Rotational constants in cm-1:     0.105972     0.009652     0.009085
Rotational constants in MHz :  3176.949958   289.373248   272.375060

                             ****ORCA TERMINATED NORMALLY****
TOTAL RUN TIME: 0 days 0 hours 0 minutes 56 seconds 286 msec
