                         Program Version 3.0.3 - RELEASE   -
|  1> ! wB97X-D3 Def2-TZVP def2-TZVP/J RIJCOSX TightSCF Grid4 COSMO
|  2>
|  3> %pal nprocs 12 end
|  4>
|  5> %scf
|  6>         maxiter 400
|  7> end
|  8>
|  9> %cosmo
| 10>         SMD true
| 11>         solvent "WATER"
| 12> end
| 13>
| 14> * xyz  0  1
| 15> O  1.927600	1.373891	0.374945
| 16> H  1.271893	1.195759	1.114203
| 17> H  2.613811	1.935313	0.766793
| 18> O  0.064680	0.764488	2.148987
| 19> H  -0.733253	1.005713	1.621493
| 20> H  0.058879	-0.219898	2.096669
| 21> O  -0.007728	-1.858871	1.441200
| 22> H  0.767379	-1.734703	0.816555
| 23> H  0.180382	-2.669217	1.938629
| 24> O  -1.935190	1.103940	0.346229
| 25> H  -2.064673	0.154390	0.059185
| 26> H  -2.826004	1.475724	0.435182
| 27> O  1.907772	-1.291769	-0.310070
| 28> H  1.313398	-1.158519	-1.087281
| 29> H  2.136866	-0.364999	-0.065510
| 30> O  -0.035806	1.978169	-1.441682
| 31> H  0.744600	1.925066	-0.841080
| 32> H  -0.797987	1.829682	-0.833678
| 33> O  0.000948	-0.604234	-2.152258
| 34> H  -0.007024	0.383321	-1.992021
| 35> H  0.091677	-0.708853	-3.111786
| 36> O  -1.966965	-1.465995	-0.426717
| 37> H  -1.357623	-1.291340	-1.181748
| 38> H  -1.347636	-1.757058	0.283761
| 39> **                         ****END OF INPUT****

CARTESIAN COORDINATES (ANGSTROEM)
---------------------------------
  O      1.927600    1.373891    0.374945
  H      1.271893    1.195759    1.114203
  H      2.613811    1.935313    0.766793
  O      0.064680    0.764488    2.148987
  H     -0.733253    1.005713    1.621493
  H      0.058879   -0.219898    2.096669
  O     -0.007728   -1.858871    1.441200
  H      0.767379   -1.734703    0.816555
  H      0.180382   -2.669217    1.938629
  O     -1.935190    1.103940    0.346229
  H     -2.064673    0.154390    0.059185
  H     -2.826004    1.475724    0.435182
  O      1.907772   -1.291769   -0.310070
  H      1.313398   -1.158519   -1.087281
  H      2.136866   -0.364999   -0.065510
  O     -0.035806    1.978169   -1.441682
  H      0.744600    1.925066   -0.841080
  H     -0.797987    1.829682   -0.833678
  O      0.000948   -0.604234   -2.152258
  H     -0.007024    0.383321   -1.992021
  H      0.091677   -0.708853   -3.111786
  O     -1.966965   -1.465995   -0.426717
  H     -1.357623   -1.291340   -1.181748
  H     -1.347636   -1.757058    0.283761

 Total Charge           Charge          ....    0
 Multiplicity           Mult            ....    1
 Number of Electrons    NEL             ....   80
 Basis Dimension        Dim             ....  344

ORBITAL ENERGIES
----------------

  NO   OCC          E(Eh)            E(eV)
   0   2.0000     -19.239226      -523.5260
   1   2.0000     -19.238396      -523.5034
   2   2.0000     -19.237841      -523.4883
   3   2.0000     -19.235843      -523.4339
   4   2.0000     -19.226965      -523.1923
   5   2.0000     -19.226366      -523.1760
   6   2.0000     -19.226260      -523.1731
   7   2.0000     -19.225517      -523.1529
   8   2.0000      -1.146807       -31.2062
   9   2.0000      -1.132228       -30.8095
  10   2.0000      -1.131030       -30.7769
  11   2.0000      -1.129795       -30.7433
  12   2.0000      -1.113187       -30.2914
  13   2.0000      -1.112659       -30.2770
  14   2.0000      -1.111344       -30.2412
  15   2.0000      -1.097718       -29.8704
  16   2.0000      -0.642460       -17.4822
  17   2.0000      -0.641660       -17.4604
  18   2.0000      -0.639680       -17.4066
  19   2.0000      -0.634941       -17.2776
  20   2.0000      -0.625919       -17.0321
  21   2.0000      -0.624364       -16.9898
  22   2.0000      -0.622909       -16.9502
  23   2.0000      -0.615434       -16.7468
  24   2.0000      -0.559739       -15.2313
  25   2.0000      -0.528030       -14.3684
  26   2.0000      -0.521491       -14.1905
  27   2.0000      -0.520191       -14.1551
  28   2.0000      -0.493886       -13.4393
  29   2.0000      -0.492604       -13.4044
  30   2.0000      -0.489717       -13.3259
  31   2.0000      -0.459593       -12.5062
  32   2.0000      -0.426058       -11.5936
  33   2.0000      -0.424568       -11.5531
  34   2.0000      -0.424071       -11.5395
  35   2.0000      -0.422552       -11.4982
  36   2.0000      -0.416347       -11.3294
  37   2.0000      -0.416119       -11.3232
  38   2.0000      -0.415487       -11.3060
  39   2.0000      -0.414032       -11.2664
  40   0.0000       0.099699         2.7130
  41   0.0000       0.147746         4.0204
  42   0.0000       0.148253         4.0342
  43   0.0000       0.149338         4.0637
  44   0.0000       0.213048         5.7973

MULLIKEN ATOMIC CHARGES
-----------------------
   0 O :   -0.777452
   1 H :    0.375677
   2 H :    0.403081
   3 O :   -0.760850
   4 H :    0.380284
   5 H :    0.375947
   6 O :   -0.773158
   7 H :    0.376866
   8 H :    0.404961
   9 O :   -0.772616
  10 H :    0.371249
  11 H :    0.407286
  12 O :   -0.758072
  13 H :    0.377755
  14 H :    0.375149
  15 O :   -0.758540
  16 H :    0.378369
  17 H :    0.375722
  18 O :   -0.773009
  19 H :    0.368490
  20 H :    0.406242
  21 O :   -0.758227
  22 H :    0.377413
  23 H :    0.377433
Sum of atomic charges:   -0.0000000

LOEWDIN ATOMIC CHARGES
----------------------
   0 O :   -0.299072
   1 H :    0.141676
   2 H :    0.184391
   3 O :   -0.320107
   4 H :    0.141484
   5 H :    0.141607
   6 O :   -0.289531
   7 H :    0.144282
   8 H :    0.185681
   9 O :   -0.285100
  10 H :    0.146455
  11 H :    0.187015
  12 O :   -0.322301
  13 H :    0.143677
  14 H :    0.144781
  15 O :   -0.327893
  16 H :    0.142250
  17 H :    0.142560
  18 O :   -0.289420
  19 H :    0.144719
  20 H :    0.186217
  21 O :   -0.329232
  22 H :    0.144456
  23 H :    0.141406

  Mayer bond orders larger than 0.1
B(  0-O ,  1-H ) :   0.7575 B(  0-O ,  2-H ) :   0.8425 B(  1-H ,  3-O ) :   0.1449
B(  3-O ,  4-H ) :   0.8060 B(  3-O ,  5-H ) :   0.8051 B(  5-H ,  6-O ) :   0.1019
B(  6-O ,  7-H ) :   0.7605 B(  6-O ,  8-H ) :   0.8407 B(  7-H , 12-O ) :   0.1408
B(  9-O , 10-H ) :   0.7647 B(  9-O , 11-H ) :   0.8394 B( 10-H , 21-O ) :   0.1448
B( 12-O , 13-H ) :   0.8076 B( 12-O , 14-H ) :   0.8111 B( 15-O , 16-H ) :   0.8073
B( 15-O , 17-H ) :   0.8122 B( 15-O , 19-H ) :   0.1477 B( 18-O , 19-H ) :   0.7643
B( 18-O , 20-H ) :   0.8406 B( 21-O , 22-H ) :   0.8149 B( 21-O , 23-H ) :   0.8079

Dispersion correction           -0.012205210
FINAL SINGLE POINT ENERGY      -611.676759478455

DIPOLE MOMENT
-------------
                                X             Y             Z
Electronic contribution:     -0.02598      -0.02222       0.01091
Nuclear contribution   :      0.11159       0.00095       0.04836
                        -----------------------------------------
Total Dipole Moment    :      0.08561      -0.02127       0.05927
                        -----------------------------------------
Magnitude (a.u.)       :      0.10628
Magnitude (Debye)      :      0.27013

                             ****ORCA TERMINATED NORMALLY****
TOTAL RUN TIME: 0 days 0 hours 1 minutes 10 seconds 477 msec
