                         Program Version 3.0.3 - RELEASE   -
|  1> ! wB97X-D3 MA-Def2-TZVP def2-TZVP/J RIJCOSX TightSCF Grid4
|  2>
|  3> %pal nprocs 1 end
|  4>
|  5> %scf
|  6>         maxiter 400
|  7> end
|  8>
|  9> %cosmo
| 10>         SMD true
| 11>         solvent "WATER"
| 12> end
| 13>
| 14> * xyz  0  1
| 15> O  1.927600	1.373891	0.374945
| 16> H  1.271893	1.195759	1.114203
| 17> H  2.613811	1.935313	0.766793
| 18> O  0.064680	0.764488	2.148987
| 19> H  -0.733253	1.005713	1.621493
| 20> H  0.058879	-0.219898	2.096669
| 21> O  -0.007728	-1.858871	1.441200
| 22> H  0.767379	-1.734703	0.816555
| 23> H  0.180382	-2.669217	1.938629
| 24> O  -1.935190	1.103940	0.346229
| 25> H  -2.064673	0.154390	0.059185
| 26> H  -2.826004	1.475724	0.435182
| 27> O  1.907772	-1.291769	-0.310070
| 28> H  1.313398	-1.158519	-1.087281
| 29> H  2.136866	-0.364999	-0.065510
| 30> O  -0.035806	1.978169	-1.441682
| 31> H  0.744600	1.925066	-0.841080
| 32> H  -0.797987	1.829682	-0.833678
| 33> O  0.000948	-0.604234	-2.152258
| 34> H  -0.007024	0.383321	-1.992021
| 35> H  0.091677	-0.708853	-3.111786
| 36> O  -1.966965	-1.465995	-0.426717
| 37> H  -1.357623	-1.291340	-1.181748
| 38> H  -1.347636	-1.757058	0.283761
| 39> **                         ****END OF INPUT****

CARTESIAN COORDINATES (ANGSTROEM)
---------------------------------
  O      1.927600    1.373891    0.374945
  H      1.271893    1.195759    1.114203
  H      2.613811    1.935313    0.766793
  O      0.064680    0.764488    2.148987
  H     -0.733253    1.005713    1.621493
  H      0.058879   -0.219898    2.096669
  O     -0.007728   -1.858871    1.441200
  H      0.767379   -1.734703    0.816555
  H      0.180382   -2.669217    1.938629
  O     -1.935190    1.103940    0.346229
  H     -2.064673    0.154390    0.059185
  H     -2.826004    1.475724    0.435182
  O      1.907772   -1.291769   -0.310070
  H      1.313398   -1.158519   -1.087281
  H      2.136866   -0.364999   -0.065510
  O     -0.035806    1.978169   -1.441682
  H      0.744600    1.925066   -0.841080
  H     -0.797987    1.829682   -0.833678
  O      0.000948   -0.604234   -2.152258
  H     -0.007024    0.383321   -1.992021
  H      0.091677   -0.708853   -3.111786
  O     -1.966965   -1.465995   -0.426717
  H     -1.357623   -1.291340   -1.181748
  H     -1.347636   -1.757058    0.283761

 Total Charge           Charge          ....    0
 Multiplicity           Mult            ....    1
 Number of Electrons    NEL             ....   80
 Basis Dimension        Dim             ....  376

ORBITAL ENERGIES
----------------

  NO   OCC          E(Eh)            E(eV)
   0   2.0000     -19.241382      -523.5846
   1   2.0000     -19.240569      -523.5625
   2   2.0000     -19.239850      -523.5429
   3   2.0000     -19.237923      -523.4905
   4   2.0000     -19.229471      -523.2605
   5   2.0000     -19.228793      -523.2421
   6   2.0000     -19.228657      -523.2384
   7   2.0000     -19.228034      -523.2214
   8   2.0000      -1.148295       -31.2467
   9   2.0000      -1.133662       -30.8485
  10   2.0000      -1.132491       -30.8166
  11   2.0000      -1.131216       -30.7820
  12   2.0000      -1.114769       -30.3344
  13   2.0000      -1.114199       -30.3189
  14   2.0000      -1.112905       -30.2837
  15   2.0000      -1.099240       -29.9119
  16   2.0000      -0.643774       -17.5180
  17   2.0000      -0.642984       -17.4965
  18   2.0000      -0.641036       -17.4435
  19   2.0000      -0.636265       -17.3136
  20   2.0000      -0.627387       -17.0721
  21   2.0000      -0.625766       -17.0280
  22   2.0000      -0.624317       -16.9885
  23   2.0000      -0.616859       -16.7856
  24   2.0000      -0.561224       -15.2717
  25   2.0000      -0.529460       -14.4073
  26   2.0000      -0.522963       -14.2306
  27   2.0000      -0.521577       -14.1928
  28   2.0000      -0.495302       -13.4779
  29   2.0000      -0.494072       -13.4444
  30   2.0000      -0.491205       -13.3664
  31   2.0000      -0.461107       -12.5474
  32   2.0000      -0.427556       -11.6344
  33   2.0000      -0.426016       -11.5925
  34   2.0000      -0.425492       -11.5782
  35   2.0000      -0.424033       -11.5385
  36   2.0000      -0.417897       -11.3716
  37   2.0000      -0.417616       -11.3639
  38   2.0000      -0.417022       -11.3477
  39   2.0000      -0.415557       -11.3079
  40   0.0000       0.066325         1.8048
  41   0.0000       0.095416         2.5964
  42   0.0000       0.096945         2.6380
  43   0.0000       0.097355         2.6492
  44   0.0000       0.123162         3.3514

MULLIKEN ATOMIC CHARGES
-----------------------
   0 O :   -0.841630
   1 H :    0.420276
   2 H :    0.412236
   3 O :   -0.827871
   4 H :    0.417050
   5 H :    0.416180
   6 O :   -0.840926
   7 H :    0.421268
   8 H :    0.413919
   9 O :   -0.866888
  10 H :    0.414023
  11 H :    0.416716
  12 O :   -0.822437
  13 H :    0.413635
  14 H :    0.418516
  15 O :   -0.799023
  16 H :    0.419862
  17 H :    0.416038
  18 O :   -0.865944
  19 H :    0.409219
  20 H :    0.415133
  21 O :   -0.795472
  22 H :    0.417811
  23 H :    0.418309
Sum of atomic charges:   -0.0000000

LOEWDIN ATOMIC CHARGES
----------------------
   0 O :   -0.392889
   1 H :    0.190922
   2 H :    0.213066
   3 O :   -0.406436
   4 H :    0.192809
   5 H :    0.192978
   6 O :   -0.384042
   7 H :    0.193450
   8 H :    0.214239
   9 O :   -0.380590
  10 H :    0.195857
  11 H :    0.215404
  12 O :   -0.408178
  13 H :    0.194617
  14 H :    0.196110
  15 O :   -0.412876
  16 H :    0.193423
  17 H :    0.193677
  18 O :   -0.384554
  19 H :    0.194234
  20 H :    0.214750
  21 O :   -0.414008
  22 H :    0.195648
  23 H :    0.192390

  Mayer bond orders larger than 0.1
B(  0-O ,  1-H ) :   0.7738 B(  0-O ,  2-H ) :   0.8367 B(  3-O ,  4-H ) :   0.8185
B(  3-O ,  5-H ) :   0.8159 B(  6-O ,  7-H ) :   0.7767 B(  6-O ,  8-H ) :   0.8351
B(  9-O , 10-H ) :   0.7750 B(  9-O , 11-H ) :   0.8327 B( 12-O , 13-H ) :   0.8197
B( 12-O , 14-H ) :   0.8209 B( 15-O , 16-H ) :   0.8185 B( 15-O , 17-H ) :   0.8251
B( 18-O , 19-H ) :   0.7758 B( 18-O , 20-H ) :   0.8347 B( 21-O , 22-H ) :   0.8268
B( 21-O , 23-H ) :   0.8193

Dispersion correction           -0.012205210
FINAL SINGLE POINT ENERGY      -611.680513329937

DIPOLE MOMENT
-------------
                                X             Y             Z
Electronic contribution:     -0.02458      -0.02231       0.01267
Nuclear contribution   :      0.11159       0.00095       0.04836
                        -----------------------------------------
Total Dipole Moment    :      0.08701      -0.02136       0.06103
                        -----------------------------------------
Magnitude (a.u.)       :      0.10841
Magnitude (Debye)      :      0.27555

                             ****ORCA TERMINATED NORMALLY****
TOTAL RUN TIME: 0 days 0 hours 6 minutes 1 seconds 996 msec
